    -----------------------------------------------------------------------
          PSI4: An Open-Source Ab Initio Electronic Structure Package
                              PSI 4.0.0-beta3 Driver

    J. M. Turney, A. C. Simmonett, R. M. Parrish, E. G. Hohenstein,
    F. A. Evangelista, J. T. Fermann, B. J. Mintz, L. A. Burns, J. J. Wilke,
    M. L. Abrams, N. J. Russ, M. L. Leininger, C. L. Janssen, E. T. Seidl,
    W. D. Allen, H. F. Schaefer, R. A. King, E. F. Valeev, C. D. Sherrill,
    and T. D. Crawford, WIREs Comput. Mol. Sci., (2011) (doi: 10.1002/wcms.93)

                         Additional Contributions by
    A. E. DePrince, M. Saitow, U. Bozkaya, A. Yu. Sokolov
    -----------------------------------------------------------------------

    Process ID:   5823
    PSI4DATADIR: /usr/local/psi4/share/psi

    Using LocalCommunicator (Number of processes = 1)

    Memory level set to 256.000 MB

  ==> Input File <==

--------------------------------------------------------------------------
molecule CH4 {
C   0.0                      0.0                      0.0
H   0.0                      0.0                      2.078698587
H   1.9598158229645684       0.0                     -0.692899529
H  -0.9799079114822842       1.6972502894260224      -0.692899529
H  -0.9799079114822842      -1.6972502894260224      -0.692899529
units au
}

plugin_load("./mointegrals.so")

set basis sto-3g
set mointegrals print 1
set reference rhf

#optimize('scf')
scf()

plugin("mointegrals.so")


--------------------------------------------------------------------------
./mointegrals.so loaded.

*** tstart() called on seb-latitude
*** at Tue Jun 11 13:24:48 2013

	There are an even number of electrons - assuming singlet.
	Specify the multiplicity with the MULTP option in the
	input if this is incorrect


         ---------------------------------------------------------
                                   SCF
            by Justin Turney, Rob Parrish, and Andy Simmonett
                              RHF Reference
                        1 Threads,    256 MiB Core
         ---------------------------------------------------------

  ==> Geometry <==

    Molecular point group: c2v
    Full point group: Td

    Geometry (in Bohr), charge = 0, multiplicity = 1:

       Center              X                  Y                   Z       
    ------------   -----------------  -----------------  -----------------
           C          0.000000000000     0.000000000000     0.000000000000
           H          0.000000000000    -1.697250289185    -1.200137188939
           H          1.697250289426     0.000000000000     1.200137188939
           H         -1.697250289426    -0.000000000000     1.200137188939
           H         -0.000000000000     1.697250289185    -1.200137188939

  Running in c2v symmetry.

  Nuclear repulsion =   13.313250311190091

  Charge       = 0
  Multiplicity = 1
  Electrons    = 10
  Nalpha       = 5
  Nbeta        = 5

  ==> Algorithm <==

  SCF Algorithm Type is PK.
  DIIS enabled.
  MOM disabled.
  Fractional occupation disabled.
  Guess Type is CORE.
  Energy threshold   = 1.00e-08
  Density threshold  = 1.00e-06
  Integral threshold = 0.00e+00

  ==> Primary Basis <==

  Basis Set: sto-3g
    Number of shells: 7
    Number of basis function: 9
    Number of Cartesian functions: 9
    Spherical Harmonics?: true
    Max angular momentum: 1

  ==> Pre-Iterations <==

   -------------------------------------------------------
    Irrep   Nso     Nmo     Nalpha   Nbeta   Ndocc  Nsocc
   -------------------------------------------------------
     A1         5       5       0       0       0       0
     A2         0       0       0       0       0       0
     B1         2       2       0       0       0       0
     B2         2       2       0       0       0       0
   -------------------------------------------------------
    Total       9       9       5       5       5       0
   -------------------------------------------------------

  ==> Integral Setup <==

 MINTS: Wrapper to libmints.
   by Justin Turney

   Calculation information:
      Number of atoms:                   5
      Number of AO shells:               7
      Number of SO shells:               5
      Number of primitives:             21
      Number of atomic orbitals:         9
      Number of basis functions:         9

      Number of irreps:                  4
      Number of functions per irrep: [   5    0    2    2 ]

      Overlap, kinetic, potential, dipole, and quadrupole integrals
        stored in file 35.

      Computing two-electron integrals...done
      Computed 335 non-zero two-electron integrals.
        Stored in file 33.

	Batch   1 pq = [       0,      21] index = [             0,231]
  ==> DiskJK: Disk-Based J/K Matrices <==

    J tasked:                  Yes
    K tasked:                  Yes
    wK tasked:                  No
    Memory (MB):               183
    Schwarz Cutoff:          0E+00

  Minimum eigenvalue in the overlap matrix is 2.2657035852E-01.
  Using Symmetric Orthogonalization.
  SCF Guess: Core (One-Electron) Hamiltonian.

  Initial RHF energy:   -29.18498485539362

  ==> Iterations <==

                        Total Energy        Delta E     Density RMS

   @RHF iter   1:   -36.07057771228590   -6.88559e+00   0.00000e+00 
   @RHF iter   2:   -39.54146743325199   -3.47089e+00   5.55548e-01 DIIS
   @RHF iter   3:   -39.72439215704748   -1.82925e-01   7.96178e-02 DIIS
   @RHF iter   4:   -39.72589627853912   -1.50412e-03   8.35445e-03 DIIS
   @RHF iter   5:   -39.72591164826794   -1.53697e-05   9.40380e-04 DIIS
   @RHF iter   6:   -39.72591203472869   -3.86461e-07   1.26396e-04 DIIS
   @RHF iter   7:   -39.72591203477140   -4.27178e-11   1.09463e-06 DIIS

  ==> Post-Iterations <==

	Orbital Energies (a.u.)
	-----------------------

	Doubly Occupied:                                                      

	   1A1   -11.031190     2A1    -0.903370     1B2    -0.513826  
	   3A1    -0.513826     1B1    -0.513826  

	Virtual:                                                              

	   2B1     0.704245     4A1     0.704245     2B2     0.704245  
	   5A1     0.735607  

	Final Occupation by Irrep:
	         A1    A2    B1    B2 
	DOCC [     3,    0,    1,    1 ]

  Energy converged.

  @RHF Final Energy:   -39.72591203477140

   => Energetics <=

    Nuclear Repulsion Energy =             13.3132503111900906
    One-Electron Energy =                 -79.1261047936735338
    Two-Electron Energy =                  26.0869424477120475
    DFT Exchange-Correlation Energy =       0.0000000000000000
    Empirical Dispersion Energy =           0.0000000000000000
    Total Energy =                        -39.7259120347713974


Properties computed using the SCF density matrix


Properties will be evaluated at   0.000000,   0.000000,   0.000000 Bohr
  ==> Properties <==

  Nuclear Dipole Moment: (a.u.)
     X:    -0.0000      Y:     0.0000      Z:     0.0000

  Electronic Dipole Moment: (a.u.)
     X:     0.0000      Y:     0.0000      Z:    -0.0000

  Dipole Moment: (a.u.)
     X:    -0.0000      Y:     0.0000      Z:    -0.0000     Total:     0.0000

  Dipole Moment: (Debye)
     X:    -0.0000      Y:     0.0000      Z:    -0.0000     Total:     0.0000


  Saving occupied orbitals to File 180.

*** tstop() called on seb-latitude at Tue Jun 11 13:24:48 2013
Module time:
	user time   =       0.03 seconds =       0.00 minutes
	system time =       0.00 seconds =       0.00 minutes
	total time  =          0 seconds =       0.00 minutes
Total time:
	user time   =       0.03 seconds =       0.00 minutes
	system time =       0.00 seconds =       0.00 minutes
	total time  =          0 seconds =       0.00 minutes
Reading options from the MOINTEGRALS block
Calling plugin mointegrals.so.
	Presorting SO-basis two-electron integrals.
	Sorting File: SO Ints (nn|nn) nbuckets = 1
	Transforming the one-electron integrals and constructing Fock matrices
	Starting first half-transformation.
	Sorting half-transformed integrals.
	First half integral transformation complete.
	Starting second half-transformation.
	Two-electron integral transformation complete.
  ## MO OEI (Symmetry 0) ##
  Irrep: 1 Size: 5 x 5

                 1            2            3            4            5

    1  -19.6683371   -0.3665324    0.0000000    0.0000000   -0.3771221
    2   -0.3665324   -5.3604180   -0.0000000    0.0000000   -1.0626055
    3    0.0000000   -0.0000000   -4.8447632   -0.9934377   -0.0000000
    4    0.0000000    0.0000000   -0.9934377   -4.3568904   -0.0000000
    5   -0.3771221   -1.0626055   -0.0000000   -0.0000000   -4.0651143



  Irrep: 2 Size: 0 x 0

	(empty)

  Irrep: 3 Size: 2 x 2

                 1            2

    1   -4.8447632   -0.9934377
    2   -0.9934377   -4.3568904



  Irrep: 4 Size: 2 x 2

                 1            2

    1   -4.8447632   -0.9934377
    2   -0.9934377   -4.3568904



****  Molecular Integrals For CheMPS Start Here 
Symmetry Label = c2v 
Nirreps = 4 
Nuclear Repulsion Energy = 13.313250311190090613422398746479302644729614257812 
Number Of Molecular Orbitals =  9 
Irreps Of Molecular Orbitals = 
0 0 0 0 0 2 2 3 3 
DOCC =  3  0  1  1 
SOCC =  0  0  0  0 
****  MO OEI 
0 0 -19.668337140072903679310911684297025203704833984375 
0 1 -0.366532418147782090844799540718668140470981597900 
0 2 0.000000000026479040260343061907732931103964801878 
0 3 0.000000000900738364212512465645232850874890573323 
0 4 -0.377122095089811204537966204952681437134742736816 
1 0 -0.366532418147782090844799540718668140470981597900 
1 1 -5.360417998538903994187876378418877720832824707031 
1 2 -0.000000000040890796608114565735547785152448341250 
1 3 0.000000002462811341148729571415287864510901272297 
1 4 -1.062605519668627929164017587027046829462051391602 
2 0 0.000000000026479040260343061907732931103964801878 
2 1 -0.000000000040890796608114565735547785152448341250 
2 2 -4.844763206439791858315402350854128599166870117188 
2 3 -0.993437749256223967542211994441458955407142639160 
2 4 -0.000000002281187429925557452747852948959916830063 
3 0 0.000000000900738364212512465645232850874890573323 
3 1 0.000000002462811341148729571415287864510901272297 
3 2 -0.993437749256223967542211994441458955407142639160 
3 3 -4.356890388987755713401384127791970968246459960938 
3 4 -0.000000000714117165032633616217339067588909529150 
4 0 -0.377122095089811204537966204952681437134742736816 
4 1 -1.062605519668627929164017587027046829462051391602 
4 2 -0.000000002281187429925557452747852948959916830063 
4 3 -0.000000000714117165032633616217339067588909529150 
4 4 -4.065114307893058942511288478272035717964172363281 
5 5 -4.844763206370036989767413615481927990913391113281 
5 6 -0.993437749296960492806363163253990933299064636230 
6 5 -0.993437749296960492806363163253990933299064636230 
6 6 -4.356890388991813800600993999978527426719665527344 
7 7 -4.844763206509571595859142689732834696769714355469 
7 8 -0.993437749215496990196072601975174620747566223145 
8 7 -0.993437749215496990196072601975174620747566223145 
8 8 -4.356890388983708284342810657108202576637268066406 
****  MO TEI 
0 0 0 0 3.501308329183589584943092631874606013298034667969 
0 0 0 1 0.293017765624482839914577425588504411280155181885 
0 0 0 2 -0.000000000019260152758142183582190654078658553772 
0 0 0 3 -0.000000000773452703644564483476120386740149115212 
0 0 0 4 0.325724719345996505115437003041733987629413604736 
0 0 1 0 0.293017765624482839914577425588504411280155181885 
0 0 1 1 0.707130347725203223241408068133750930428504943848 
0 0 1 2 0.000000000003253118992718392887830702875362476334 
0 0 1 3 -0.000000000666410535803997616799421166433603502810 
0 0 1 4 0.287446712796466385952953714877367019653320312500 
0 0 2 0 -0.000000000019260152758142183582190654078658553772 
0 0 2 1 0.000000000003253118992718392887830702875362476334 
0 0 2 2 0.631037353349678031833036584430374205112457275391 
0 0 2 3 0.250994983382710867836351553705753758549690246582 
0 0 2 4 0.000000000578898829182517352109904607004864374176 
0 0 3 0 -0.000000000773452703644564483476120386740149115212 
0 0 3 1 -0.000000000666410535803997616799421166433603502810 
0 0 3 2 0.250994983382710867836351553705753758549690246582 
0 0 3 3 0.729814725515521733889556799113051965832710266113 
0 0 3 4 0.000000000111013237705649518705097733572983997874 
0 0 4 0 0.325724719345996505115437003041733987629413604736 
0 0 4 1 0.287446712796466385952953714877367019653320312500 
0 0 4 2 0.000000000578898829182517352109904607004864374176 
0 0 4 3 0.000000000111013237705649518705097733572983997874 
0 0 4 4 0.691023312162061476016106098541058599948883056641 
0 0 5 5 0.631037353337111306395001975033665075898170471191 
0 0 5 6 0.250994983387609560399056363166891969740390777588 
0 0 6 5 0.250994983387609560399056363166891969740390777588 
0 0 6 6 0.729814725510259720842043407174060121178627014160 
0 0 7 7 0.631037353362248198962447531812358647584915161133 
0 0 7 8 0.250994983377813951630486144495080225169658660889 
0 0 8 7 0.250994983377813951630486144495080225169658660889 
0 0 8 8 0.729814725520785412271607128786854445934295654297 
0 1 0 0 0.293017765624482895425728656846331432461738586426 
0 1 0 1 0.038510758786782194051934169465312152169644832611 
0 1 0 2 -0.000000000001775251929813303434363414012864268443 
0 1 0 3 -0.000000000102329793517073625724878027654085599352 
0 1 0 4 0.043608868356747917949256532210711156949400901794 
0 1 1 0 0.038510758786782194051934169465312152169644832611 
0 1 1 1 0.009153590896116720401765043391151266405358910561 
0 1 1 2 -0.000000000001491582664913892270554555616324243772 
0 1 1 3 -0.000000000024916189586383366800852959960232979597 
0 1 1 4 0.010323561351193413088145334199907665606588125229 
0 1 2 0 -0.000000000001775251929813303434363414012864268443 
0 1 2 1 -0.000000000001491582664913892270554555616324243772 
0 1 2 2 0.003887735318899596202030233271784709359053522348 
0 1 2 3 0.005418783961177588842650365563713421579450368881 
0 1 2 4 0.000000000011873577449653387617251043550936628890 
0 1 3 0 -0.000000000102329793517073625724878027654085599352 
0 1 3 1 -0.000000000024916189586383366800852959960232979597 
0 1 3 2 0.005418783961177588842650365563713421579450368881 
0 1 3 3 0.008411640436198143319646014504087361274287104607 
0 1 3 4 -0.000000000009548065343416642239762759380994339153 
0 1 4 0 0.043608868356747917949256532210711156949400901794 
0 1 4 1 0.010323561351193413088145334199907665606588125229 
0 1 4 2 0.000000000011873577449653387617251043550936628890 
0 1 4 3 -0.000000000009548065343416642239762759380994339153 
0 1 4 4 0.012119717389993858724928088577144080772995948792 
0 1 5 5 0.003887735319113604266771933026802798849530518055 
0 1 5 6 0.005418783960770804861151184184109297348186373711 
0 1 6 5 0.005418783960770804861151184184109297348186373711 
0 1 6 6 0.008411640436079377211586738383175543276593089104 
0 1 7 7 0.003887735318685615025502411157276583253405988216 
0 1 7 8 0.005418783961584410988066018433073622873052954674 
0 1 8 7 0.005418783961584410988066018433073622873052954674 
0 1 8 8 0.008411640436316937183280906253912689862772822380 
0 2 0 0 -0.000000000019260135415442855112747960700733673711 
0 2 0 1 -0.000000000001775251998025925467936288193460114826 
0 2 0 2 0.008722703773392858489499346319462347310036420822 
0 2 0 3 0.013371905243548028868749710795782448258250951767 
0 2 0 4 0.000000000029695227190951777512589390695119107022 
0 2 1 0 -0.000000000001775251998025925467936288193460114826 
0 2 1 1 -0.000000000003114955430579200421938035336921757334 
0 2 1 2 -0.013677696792921696655742636039576609618961811066 
0 2 1 3 -0.009822187888413110024021790422921185381710529327 
0 2 1 4 -0.000000000024613641716635169080784617534618519130 
0 2 2 0 0.008722703773392858489499346319462347310036420822 
0 2 2 1 -0.013677696792921696655742636039576609618961811066 
0 2 2 2 0.000000000001356792763383007525621049005337681592 
0 2 2 3 0.000000000016685898994462918052544830871397607552 
0 2 2 4 -0.006725054465621228480531890170368569670245051384 
0 2 3 0 0.013371905243548028868749710795782448258250951767 
0 2 3 1 -0.009822187888413110024021790422921185381710529327 
0 2 3 2 0.000000000016685898994462918052544830871397607552 
0 2 3 3 0.000000000066234115472531388023672005438413634693 
0 2 3 4 -0.013984966592480220851091310407809942262247204781 
0 2 4 0 0.000000000029695227190951777512589390695119107022 
0 2 4 1 -0.000000000024613641716635169080784617534618519130 
0 2 4 2 -0.006725054465621228480531890170368569670245051384 
0 2 4 3 -0.013984966592480220851091310407809942262247204781 
0 2 4 4 -0.000000000068377295937895192748010551875292861723 
0 2 5 5 0.003933628973496085604044658623479335801675915718 
0 2 5 6 -0.003524458695159808467589623859339553746394813061 
0 2 6 5 -0.003524458695159808467589623859339553746394813061 
0 2 6 6 -0.000375760517130866713783610144616886827861890197 
0 2 7 7 -0.003933628974577959777625402182366087799891829491 
0 2 7 8 0.003524458695448263057664606279217878181952983141 
0 2 8 7 0.003524458695448263057664606279217878181952983141 
0 2 8 8 0.000375760516126956488434235348350398453476373106 
0 3 0 0 -0.000000000773452738263216282426876864355275165153 
0 3 0 1 -0.000000000102329793341817214982042948123730496945 
0 3 0 2 0.013371905243548028868749710795782448258250951767 
0 3 0 3 0.020623785586570356903601819453797361347824335098 
0 3 0 4 -0.000000000067118078783435487723232210077739523513 
0 3 1 0 -0.000000000102329793341817214982042948123730496945 
0 3 1 1 -0.000000000026493621480108571735866823670946246239 
0 3 1 2 -0.018978256316239391215949794400330574717372655869 
0 3 1 3 -0.014279630435092390688955887867450655903667211533 
0 3 1 4 -0.000000000060700007939623633942266556218214645924 
0 3 2 0 0.013371905243548028868749710795782448258250951767 
0 3 2 1 -0.018978256316239391215949794400330574717372655869 
0 3 2 2 -0.000000000006613033397404375181641289493938984378 
0 3 2 3 0.000000000012344557913382338439067797963843986508 
0 3 2 4 -0.009810637897609521956843181555996125098317861557 
0 3 3 0 0.020623785586570356903601819453797361347824335098 
0 3 3 1 -0.014279630435092390688955887867450655903667211533 
0 3 3 2 0.000000000012344557913382338439067797963843986508 
0 3 3 3 0.000000000076879542378376146101806587473959098133 
0 3 3 4 -0.020111514748036782296303215389343677088618278503 
0 3 4 0 -0.000000000067118078783435487723232210077739523513 
0 3 4 1 -0.000000000060700007939623633942266556218214645924 
0 3 4 2 -0.009810637897609521956843181555996125098317861557 
0 3 4 3 -0.020111514748036782296303215389343677088618278503 
0 3 4 4 -0.000000000127155665404034536806847366374739749517 
0 3 5 5 0.004779457353645560728494512403585758875124156475 
0 3 5 6 -0.005308132634598520561974854814479840570129454136 
0 3 6 5 -0.005308132634598520561974854814479840570129454136 
0 3 6 6 -0.001194415432427813712409903068589756003348156810 
0 3 7 7 -0.004779457372265972364688835227752861101180315018 
0 3 7 8 0.005308132610848111804235927024819829966872930527 
0 3 8 7 0.005308132610848111804235927024819829966872930527 
0 3 8 8 0.001194415394138992597000692441611136018764227629 
0 4 0 0 0.325724719345996671648890696815215051174163818359 
0 4 0 1 0.043608868356747931827044340025167912244796752930 
0 4 0 2 0.000000000029695227840255471142213994362180073949 
0 4 0 3 -0.000000000067118079392134539443853791240712780564 
0 4 0 4 0.049451348841524654653678538807071163319051265717 
0 4 1 0 0.043608868356747931827044340025167912244796752930 
0 4 1 1 0.009641580832651224300389181109949277015402913094 
0 4 1 2 -0.000000000046350088115857449144108320103225412412 
0 4 1 3 -0.000000000060010606972756886882831761013783189451 
0 4 1 4 0.010843858101250864953146724189991800813004374504 
0 4 2 0 0.000000000029695227840255471142213994362180073949 
0 4 2 1 -0.000000000046350088115857449144108320103225412412 
0 4 2 2 0.003710148471741758855607651312880079785827547312 
0 4 2 3 0.005228174246707711046722177883339099935255944729 
0 4 2 4 -0.000000000011901015541226759621162845093067517155 
0 4 3 0 -0.000000000067118079392134539443853791240712780564 
0 4 3 1 -0.000000000060010606972756886882831761013783189451 
0 4 3 2 0.005228174246707711046722177883339099935255944729 
0 4 3 3 0.008032804871844028554717098700166388880461454391 
0 4 3 4 -0.000000000059106040024372829942570298222825897483 
0 4 4 0 0.049451348841524654653678538807071163319051265717 
0 4 4 1 0.010843858101250864953146724189991800813004374504 
0 4 4 2 -0.000000000011901015541226759621162845093067517155 
0 4 4 3 -0.000000000059106040024372829942570298222825897483 
0 4 4 4 0.012577641129295552210876074639145372202619910240 
0 4 5 5 0.003710148483150907654931627277505867823492735624 
0 4 5 6 0.005228174233752496020966038514643514645285904408 
0 4 6 5 0.005228174233752496020966038514643514645285904408 
0 4 6 6 0.008032804868775124049196101339020970044657588005 
0 4 7 7 0.003710148460332627403518435116325235867407172918 
0 4 7 8 0.005228174259662950358606980927334006992168724537 
0 4 8 7 0.005228174259662950358606980927334006992168724537 
0 4 8 8 0.008032804874913113471479597649249626556411385536 
1 0 0 0 0.293017765624482895425728656846331432461738586426 
1 0 0 1 0.038510758786782194051934169465312152169644832611 
1 0 0 2 -0.000000000001775251929813303434363414012864268443 
1 0 0 3 -0.000000000102329793517073625724878027654085599352 
1 0 0 4 0.043608868356747917949256532210711156949400901794 
1 0 1 0 0.038510758786782194051934169465312152169644832611 
1 0 1 1 0.009153590896116720401765043391151266405358910561 
1 0 1 2 -0.000000000001491582664913892270554555616324243772 
1 0 1 3 -0.000000000024916189586383366800852959960232979597 
1 0 1 4 0.010323561351193413088145334199907665606588125229 
1 0 2 0 -0.000000000001775251929813303434363414012864268443 
1 0 2 1 -0.000000000001491582664913892270554555616324243772 
1 0 2 2 0.003887735318899596202030233271784709359053522348 
1 0 2 3 0.005418783961177588842650365563713421579450368881 
1 0 2 4 0.000000000011873577449653387617251043550936628890 
1 0 3 0 -0.000000000102329793517073625724878027654085599352 
1 0 3 1 -0.000000000024916189586383366800852959960232979597 
1 0 3 2 0.005418783961177588842650365563713421579450368881 
1 0 3 3 0.008411640436198143319646014504087361274287104607 
1 0 3 4 -0.000000000009548065343416642239762759380994339153 
1 0 4 0 0.043608868356747917949256532210711156949400901794 
1 0 4 1 0.010323561351193413088145334199907665606588125229 
1 0 4 2 0.000000000011873577449653387617251043550936628890 
1 0 4 3 -0.000000000009548065343416642239762759380994339153 
1 0 4 4 0.012119717389993858724928088577144080772995948792 
1 0 5 5 0.003887735319113604266771933026802798849530518055 
1 0 5 6 0.005418783960770804861151184184109297348186373711 
1 0 6 5 0.005418783960770804861151184184109297348186373711 
1 0 6 6 0.008411640436079377211586738383175543276593089104 
1 0 7 7 0.003887735318685615025502411157276583253405988216 
1 0 7 8 0.005418783961584410988066018433073622873052954674 
1 0 8 7 0.005418783961584410988066018433073622873052954674 
1 0 8 8 0.008411640436316937183280906253912689862772822380 
1 1 0 0 0.707130347725203112219105605618096888065338134766 
1 1 0 1 0.009153590896116703054530283623080322286114096642 
1 1 0 2 -0.000000000003114955706500182990026370788427811931 
1 1 0 3 -0.000000000026493621197305446471337297964510071324 
1 1 0 4 0.009641580832651194810090089504228672012686729431 
1 1 1 0 0.009153590896116703054530283623080322286114096642 
1 1 1 1 0.502573616850990556592648772493703290820121765137 
1 1 1 2 0.000000000021906321469810328961269618730511865579 
1 1 1 3 -0.000000000200716973667832213057415913226577686146 
1 1 1 4 0.087806940388447954348727364504156867042183876038 
1 1 2 0 -0.000000000003114955706500182990026370788427811931 
1 1 2 1 0.000000000021906321469810328961269618730511865579 
1 1 2 2 0.483663565125820760215447080554440617561340332031 
1 1 2 3 0.081297168847692127813253648582758614793419837952 
1 1 2 4 0.000000000183723208494563847170688575261010555550 
1 1 3 0 -0.000000000026493621197305446471337297964510071324 
1 1 3 1 -0.000000000200716973667832213057415913226577686146 
1 1 3 2 0.081297168847692127813253648582758614793419837952 
1 1 3 3 0.492079201851413461366036017352598719298839569092 
1 1 3 4 0.000000000079289667977752286559534056209486152511 
1 1 4 0 0.009641580832651194810090089504228672012686729431 
1 1 4 1 0.087806940388447954348727364504156867042183876038 
1 1 4 2 0.000000000183723208494563847170688575261010555550 
1 1 4 3 0.000000000079289667977752286559534056209486152511 
1 1 4 4 0.468424535412574227777326996147166937589645385742 
1 1 5 5 0.483663565110163395921460960380500182509422302246 
1 1 5 6 0.081297168861174093357213621402479475364089012146 
1 1 6 5 0.081297168861174093357213621402479475364089012146 
1 1 6 6 0.492079201842894720098087191217928193509578704834 
1 1 7 7 0.483663565141480400466633682299288921058177947998 
1 1 7 8 0.081297168834211008814349952444899827241897583008 
1 1 8 7 0.081297168834211008814349952444899827241897583008 
1 1 8 8 0.492079201859933590412765624932944774627685546875 
1 2 0 0 0.000000000003253106542018973796809625485815242740 
1 2 0 1 -0.000000000001491582914901108273880367405261893055 
1 2 0 2 -0.013677696792921698390466112016383704030886292458 
1 2 0 3 -0.018978256316239387746502842446716385893523693085 
1 2 0 4 -0.000000000046350090287145966115936457363488898409 
1 2 1 0 -0.000000000001491582914901108273880367405261893055 
1 2 1 1 0.000000000021906328213039622052754618053427293489 
1 2 1 2 0.107756304603558367150029084768902976065874099731 
1 2 1 3 0.018805854212766870414696995794656686484813690186 
1 2 1 4 0.000000000042590702516967678115111795023040031083 
1 2 2 0 -0.013677696792921698390466112016383704030886292458 
1 2 2 1 0.107756304603558367150029084768902976065874099731 
1 2 2 2 -0.000000000009338059866375106321534360631630988792 
1 2 2 3 0.000000000024359785381607244186819016817935334984 
1 2 2 4 -0.010777216099095864379475706584798899712041020393 
1 2 3 0 -0.018978256316239387746502842446716385893523693085 
1 2 3 1 0.018805854212766870414696995794656686484813690186 
1 2 3 2 0.000000000024359785381607244186819016817935334984 
1 2 3 3 -0.000000000457617691295911363166815100100848212605 
1 2 3 4 0.096308702129033127437018890759645728394389152527 
1 2 4 0 -0.000000000046350090287145966115936457363488898409 
1 2 4 1 0.000000000042590702516967678115111795023040031083 
1 2 4 2 -0.010777216099095864379475706584798899712041020393 
1 2 4 3 0.096308702129033127437018890759645728394389152527 
1 2 4 4 0.000000000466334169139237661103059018330441176658 
1 2 5 5 -0.058918939622124945343362156791044981218874454498 
1 2 5 6 0.053204854344897210827181055492474115453660488129 
1 2 6 5 0.053204854344897210827181055492474115453660488129 
1 2 6 6 -0.033638654217190554207572716904905973933637142181 
1 2 7 7 0.058918939628195068913818488454126054421067237854 
1 2 7 8 -0.053204854352005934159386413284664740785956382751 
1 2 8 7 -0.053204854352005934159386413284664740785956382751 
1 2 8 8 0.033638654224179095897362401501595741137862205505 
1 3 0 0 -0.000000000666410511581580058264181142240606403604 
1 3 0 1 -0.000000000024916191606993697365787267250514247507 
1 3 0 2 -0.009822187888413110024021790422921185381710529327 
1 3 0 3 -0.014279630435092394158402839821064844727516174316 
1 3 0 4 -0.000000000060010607374078863904265368489632237470 
1 3 1 0 -0.000000000024916191606993697365787267250514247507 
1 3 1 1 -0.000000000200716987685803973642459374637780911144 
1 3 1 2 0.018805854212766870414696995794656686484813690186 
1 3 1 3 0.047728060027387900210449345195229398086667060852 
1 3 1 4 -0.000000000053523686618325735887477523355926223303 
1 3 2 0 -0.009822187888413110024021790422921185381710529327 
1 3 2 1 0.018805854212766870414696995794656686484813690186 
1 3 2 2 -0.000000000160654250927594102727434532962291768854 
1 3 2 3 -0.000000000270164434171302165555231256099943948357 
1 3 2 4 0.041411287770403079622205666510126320645213127136 
1 3 3 0 -0.014279630435092394158402839821064844727516174316 
1 3 3 1 0.047728060027387900210449345195229398086667060852 
1 3 3 2 -0.000000000270164434171302165555231256099943948357 
1 3 3 3 -0.000000000232789446678432479162501600455925654387 
1 3 3 4 0.009114824321102952056627977128755446756258606911 
1 3 4 0 -0.000000000060010607374078863904265368489632237470 
1 3 4 1 -0.000000000053523686618325735887477523355926223303 
1 3 4 2 0.041411287770403079622205666510126320645213127136 
1 3 4 3 0.009114824321102952056627977128755446756258606911 
1 3 4 4 -0.000000000106753174127573484050723884308808919741 
1 3 5 5 0.020444807570316376327257401612769172061234712601 
1 3 5 6 -0.006348395210178751739416025401396836969070136547 
1 3 6 5 -0.006348395210178751739416025401396836969070136547 
1 3 6 6 0.031432456128703059605733471926214406266808509827 
1 3 7 7 -0.020444807888739025686364314537968311924487352371 
1 3 7 8 0.006348394873056812000300386245044137467630207539 
1 3 8 7 0.006348394873056812000300386245044137467630207539 
1 3 8 8 -0.031432456510236732316609931103812414221465587616 
1 4 0 0 0.287446712796466385952953714877367019653320312500 
1 4 0 1 0.010323561351193420027039238107136043254286050797 
1 4 0 2 -0.000000000024613644627040375846560582573374631465 
1 4 0 3 -0.000000000060700000661069518186063742604119397583 
1 4 0 4 0.010843858101250890973998863842098216991871595383 
1 4 1 0 0.010323561351193420027039238107136043254286050797 
1 4 1 1 0.087806940388447982104302980133070377632975578308 
1 4 1 2 0.000000000042590697106121211054641229054595896741 
1 4 1 3 -0.000000000053523670603050285676793862421618541703 
1 4 1 4 0.073555231872912699153665982976235682144761085510 
1 4 2 0 -0.000000000024613644627040375846560582573374631465 
1 4 2 1 0.000000000042590697106121211054641229054595896741 
1 4 2 2 0.068529990757096218012556221310660475865006446838 
1 4 2 3 0.071906753721470706430807240394642576575279235840 
1 4 2 4 0.000000000268626192619666852301474335718012298457 
1 4 3 0 -0.000000000060700000661069518186063742604119397583 
1 4 3 1 -0.000000000053523670603050285676793862421618541703 
1 4 3 2 0.071906753721470706430807240394642576575279235840 
1 4 3 3 0.081788234625858005633070035855780588462948799133 
1 4 3 4 0.000000000062095237904917683930544614057112084993 
1 4 4 0 0.010843858101250890973998863842098216991871595383 
1 4 4 1 0.073555231872912699153665982976235682144761085510 
1 4 4 2 0.000000000268626192619666852301474335718012298457 
1 4 4 3 0.000000000062095237904917683930544614057112084993 
1 4 4 4 0.065263714797115041088559905801957938820123672485 
1 4 5 5 0.068529990806328919261680709951178869232535362244 
1 4 5 6 0.071906753704954973205332180441473610699176788330 
1 4 6 5 0.071906753704954973205332180441473610699176788330 
1 4 6 6 0.081788234703837101036150158961390843614935874939 
1 4 7 7 0.068529990707864141263883084320696070790290832520 
1 4 7 8 0.071906753737986897623279958224884467199444770813 
1 4 8 7 0.071906753737986897623279958224884467199444770813 
1 4 8 8 0.081788234547879049007867990894737886264920234680 
2 0 0 0 -0.000000000019260135415442855112747960700733673711 
2 0 0 1 -0.000000000001775251998025925467936288193460114826 
2 0 0 2 0.008722703773392858489499346319462347310036420822 
2 0 0 3 0.013371905243548028868749710795782448258250951767 
2 0 0 4 0.000000000029695227190951777512589390695119107022 
2 0 1 0 -0.000000000001775251998025925467936288193460114826 
2 0 1 1 -0.000000000003114955430579200421938035336921757334 
2 0 1 2 -0.013677696792921696655742636039576609618961811066 
2 0 1 3 -0.009822187888413110024021790422921185381710529327 
2 0 1 4 -0.000000000024613641716635169080784617534618519130 
2 0 2 0 0.008722703773392858489499346319462347310036420822 
2 0 2 1 -0.013677696792921696655742636039576609618961811066 
2 0 2 2 0.000000000001356792763383007525621049005337681592 
2 0 2 3 0.000000000016685898994462918052544830871397607552 
2 0 2 4 -0.006725054465621228480531890170368569670245051384 
2 0 3 0 0.013371905243548028868749710795782448258250951767 
2 0 3 1 -0.009822187888413110024021790422921185381710529327 
2 0 3 2 0.000000000016685898994462918052544830871397607552 
2 0 3 3 0.000000000066234115472531388023672005438413634693 
2 0 3 4 -0.013984966592480220851091310407809942262247204781 
2 0 4 0 0.000000000029695227190951777512589390695119107022 
2 0 4 1 -0.000000000024613641716635169080784617534618519130 
2 0 4 2 -0.006725054465621228480531890170368569670245051384 
2 0 4 3 -0.013984966592480220851091310407809942262247204781 
2 0 4 4 -0.000000000068377295937895192748010551875292861723 
2 0 5 5 0.003933628973496085604044658623479335801675915718 
2 0 5 6 -0.003524458695159808467589623859339553746394813061 
2 0 6 5 -0.003524458695159808467589623859339553746394813061 
2 0 6 6 -0.000375760517130866713783610144616886827861890197 
2 0 7 7 -0.003933628974577959777625402182366087799891829491 
2 0 7 8 0.003524458695448263057664606279217878181952983141 
2 0 8 7 0.003524458695448263057664606279217878181952983141 
2 0 8 8 0.000375760516126956488434235348350398453476373106 
2 1 0 0 0.000000000003253106542018973796809625485815242740 
2 1 0 1 -0.000000000001491582914901108273880367405261893055 
2 1 0 2 -0.013677696792921698390466112016383704030886292458 
2 1 0 3 -0.018978256316239387746502842446716385893523693085 
2 1 0 4 -0.000000000046350090287145966115936457363488898409 
2 1 1 0 -0.000000000001491582914901108273880367405261893055 
2 1 1 1 0.000000000021906328213039622052754618053427293489 
2 1 1 2 0.107756304603558367150029084768902976065874099731 
2 1 1 3 0.018805854212766870414696995794656686484813690186 
2 1 1 4 0.000000000042590702516967678115111795023040031083 
2 1 2 0 -0.013677696792921698390466112016383704030886292458 
2 1 2 1 0.107756304603558367150029084768902976065874099731 
2 1 2 2 -0.000000000009338059866375106321534360631630988792 
2 1 2 3 0.000000000024359785381607244186819016817935334984 
2 1 2 4 -0.010777216099095864379475706584798899712041020393 
2 1 3 0 -0.018978256316239387746502842446716385893523693085 
2 1 3 1 0.018805854212766870414696995794656686484813690186 
2 1 3 2 0.000000000024359785381607244186819016817935334984 
2 1 3 3 -0.000000000457617691295911363166815100100848212605 
2 1 3 4 0.096308702129033127437018890759645728394389152527 
2 1 4 0 -0.000000000046350090287145966115936457363488898409 
2 1 4 1 0.000000000042590702516967678115111795023040031083 
2 1 4 2 -0.010777216099095864379475706584798899712041020393 
2 1 4 3 0.096308702129033127437018890759645728394389152527 
2 1 4 4 0.000000000466334169139237661103059018330441176658 
2 1 5 5 -0.058918939622124945343362156791044981218874454498 
2 1 5 6 0.053204854344897210827181055492474115453660488129 
2 1 6 5 0.053204854344897210827181055492474115453660488129 
2 1 6 6 -0.033638654217190554207572716904905973933637142181 
2 1 7 7 0.058918939628195068913818488454126054421067237854 
2 1 7 8 -0.053204854352005934159386413284664740785956382751 
2 1 8 7 -0.053204854352005934159386413284664740785956382751 
2 1 8 8 0.033638654224179095897362401501595741137862205505 
2 2 0 0 0.631037353349678031833036584430374205112457275391 
2 2 0 1 0.003887735318899603140924137179013087006751447916 
2 2 0 2 0.000000000001356790617425035656851139975742626120 
2 2 0 3 -0.000000000006613030700027954650321859730865980964 
2 2 0 4 0.003710148471741760156650258295485400594770908356 
2 2 1 0 0.003887735318899603140924137179013087006751447916 
2 2 1 1 0.483663565125820760215447080554440617561340332031 
2 2 1 2 -0.000000000009338041529805864160440620480585494079 
2 2 1 3 -0.000000000160654278671523015331601413890894036740 
2 2 1 4 0.068529990757096231890344029125117231160402297974 
2 2 2 0 0.000000000001356790617425035656851139975742626120 
2 2 2 1 -0.000000000009338041529805864160440620480585494079 
2 2 2 2 0.488420309166159027913778345464379526674747467041 
2 2 2 3 0.077409562239072846057119647866784362122416496277 
2 2 2 4 0.000000000179518732656438161077172566137960529886 
2 2 3 0 -0.000000000006613030700027954650321859730865980964 
2 2 3 1 -0.000000000160654278671523015331601413890894036740 
2 2 3 2 0.077409562239072846057119647866784362122416496277 
2 2 3 3 0.489740144032003610341519106441410258412361145020 
2 2 3 4 0.000000000068482587269990801565056059985181491356 
2 2 4 0 0.003710148471741760156650258295485400594770908356 
2 2 4 1 0.068529990757096231890344029125117231160402297974 
2 2 4 2 0.000000000179518732656438161077172566137960529886 
2 2 4 3 0.000000000068482587269990801565056059985181491356 
2 2 4 4 0.457756532103991919946395228180335834622383117676 
2 2 5 5 0.462365623690665639156094357531401328742504119873 
2 2 5 6 0.055019123217955226423647729916410753503441810608 
2 2 6 5 0.055019123217955226423647729916410753503441810608 
2 2 6 6 0.471667344657819398445752767656813375651836395264 
2 2 7 7 0.462365623683391291365296638105064630508422851562 
2 2 7 8 0.055019123224265803484556158764462452381849288940 
2 2 8 7 0.055019123224265803484556158764462452381849288940 
2 2 8 8 0.471667344653995734837792497273767367005348205566 
2 3 0 0 0.250994983382710867836351553705753758549690246582 
2 3 0 1 0.005418783961177593179459055505731157609261572361 
2 3 0 2 0.000000000016685894428955332351866003293139328889 
2 3 0 3 0.000000000012344567318836184750818762978497034055 
2 3 0 4 0.005228174246707724057148247709392308024689555168 
2 3 1 0 0.005418783961177593179459055505731157609261572361 
2 3 1 1 0.081297168847692155568829264211672125384211540222 
2 3 1 2 0.000000000024359804724451627686021559782147960505 
2 3 1 3 -0.000000000270164453200320842096715523439343087375 
2 3 1 4 0.071906753721470775819746279466926353052258491516 
2 3 2 0 0.000000000016685894428955332351866003293139328889 
2 3 2 1 0.000000000024359804724451627686021559782147960505 
2 3 2 2 0.077409562239072818301544032237870851531624794006 
2 3 2 3 0.086448223160816545229678808937023859471082687378 
2 3 2 4 0.000000000083326105116874292499939969047773047350 
2 3 3 0 0.000000000012344567318836184750818762978497034055 
2 3 3 1 -0.000000000270164453200320842096715523439343087375 
2 3 3 2 0.086448223160816545229678808937023859471082687378 
2 3 3 3 0.088218764196484708572931765502289636060595512390 
2 3 3 4 0.000000000122789583502133756338914327699285422568 
2 3 4 0 0.005228174246707724057148247709392308024689555168 
2 3 4 1 0.071906753721470775819746279466926353052258491516 
2 3 4 2 0.000000000083326105116874292499939969047773047350 
2 3 4 3 0.000000000122789583502133756338914327699285422568 
2 3 4 4 0.056669612096460292294253235922951716929674148560 
2 3 5 5 0.055019123141548977040660162174390279687941074371 
2 3 5 6 0.064788163961395334178305915884266141802072525024 
2 3 6 5 0.064788163961395334178305915884266141802072525024 
2 3 6 6 0.067745073743805797605865848254325101152062416077 
2 3 7 7 0.055019123300671893272983936640230240300297737122 
2 3 7 8 0.064788163832855572010771538771223276853561401367 
2 3 8 7 0.064788163832855572010771538771223276853561401367 
2 3 8 8 0.067745073941306799270023475401103496551513671875 
2 4 0 0 0.000000000578898794537783721264738613773367936766 
2 4 0 1 0.000000000011873593944799472227097543453044892203 
2 4 0 2 -0.006725054465621229347893628158772116876207292080 
2 4 0 3 -0.009810637897609527161013609486417408334091305733 
2 4 0 4 -0.000000000011900973510234307001101963785494319836 
2 4 1 0 0.000000000011873593944799472227097543453044892203 
2 4 1 1 0.000000000183723230981594530877853976846836303594 
2 4 1 2 -0.010777216099095876522540038422448560595512390137 
2 4 1 3 0.041411287770403093499993474324583075940608978271 
2 4 1 4 0.000000000268626215369277749657472842415018021711 
2 4 2 0 -0.006725054465621229347893628158772116876207292080 
2 4 2 1 -0.010777216099095876522540038422448560595512390137 
2 4 2 2 0.000000000179518739036290319796562720000565605005 
2 4 2 3 0.000000000083326088113534909317114962590267168707 
2 4 2 4 0.047236801672799082207898635488163563422858715057 
2 4 3 0 -0.009810637897609527161013609486417408334091305733 
2 4 3 1 0.041411287770403093499993474324583075940608978271 
2 4 3 2 0.000000000083326088113534909317114962590267168707 
2 4 3 3 0.000000000294815360116223871070340045719149202341 
2 4 3 4 -0.019073223511631348658923457151104230433702468872 
2 4 4 0 -0.000000000011900973510234307001101963785494319836 
2 4 4 1 0.000000000268626215369277749657472842415018021711 
2 4 4 2 0.047236801672799082207898635488163563422858715057 
2 4 4 3 -0.019073223511631348658923457151104230433702468872 
2 4 4 4 0.000000000038505436051101027579435243097805141588 
2 4 5 5 0.031410067649874549855493199856937280856072902679 
2 4 5 6 -0.026120720807402866836532950856053503230214118958 
2 4 6 5 -0.026120720807402866836532950856053503230214118958 
2 4 6 6 0.039573140798783171256935986548342043533921241760 
2 4 7 7 -0.031410067399762563178367003047242178581655025482 
2 4 7 8 0.026120721103713846061866732384260103572160005569 
2 4 8 7 0.026120721103713846061866732384260103572160005569 
2 4 8 8 -0.039573140491903746607249559019692242145538330078 
3 0 0 0 -0.000000000773452738263216282426876864355275165153 
3 0 0 1 -0.000000000102329793341817214982042948123730496945 
3 0 0 2 0.013371905243548028868749710795782448258250951767 
3 0 0 3 0.020623785586570356903601819453797361347824335098 
3 0 0 4 -0.000000000067118078783435487723232210077739523513 
3 0 1 0 -0.000000000102329793341817214982042948123730496945 
3 0 1 1 -0.000000000026493621480108571735866823670946246239 
3 0 1 2 -0.018978256316239391215949794400330574717372655869 
3 0 1 3 -0.014279630435092390688955887867450655903667211533 
3 0 1 4 -0.000000000060700007939623633942266556218214645924 
3 0 2 0 0.013371905243548028868749710795782448258250951767 
3 0 2 1 -0.018978256316239391215949794400330574717372655869 
3 0 2 2 -0.000000000006613033397404375181641289493938984378 
3 0 2 3 0.000000000012344557913382338439067797963843986508 
3 0 2 4 -0.009810637897609521956843181555996125098317861557 
3 0 3 0 0.020623785586570356903601819453797361347824335098 
3 0 3 1 -0.014279630435092390688955887867450655903667211533 
3 0 3 2 0.000000000012344557913382338439067797963843986508 
3 0 3 3 0.000000000076879542378376146101806587473959098133 
3 0 3 4 -0.020111514748036782296303215389343677088618278503 
3 0 4 0 -0.000000000067118078783435487723232210077739523513 
3 0 4 1 -0.000000000060700007939623633942266556218214645924 
3 0 4 2 -0.009810637897609521956843181555996125098317861557 
3 0 4 3 -0.020111514748036782296303215389343677088618278503 
3 0 4 4 -0.000000000127155665404034536806847366374739749517 
3 0 5 5 0.004779457353645560728494512403585758875124156475 
3 0 5 6 -0.005308132634598520561974854814479840570129454136 
3 0 6 5 -0.005308132634598520561974854814479840570129454136 
3 0 6 6 -0.001194415432427813712409903068589756003348156810 
3 0 7 7 -0.004779457372265972364688835227752861101180315018 
3 0 7 8 0.005308132610848111804235927024819829966872930527 
3 0 8 7 0.005308132610848111804235927024819829966872930527 
3 0 8 8 0.001194415394138992597000692441611136018764227629 
3 1 0 0 -0.000000000666410511581580058264181142240606403604 
3 1 0 1 -0.000000000024916191606993697365787267250514247507 
3 1 0 2 -0.009822187888413110024021790422921185381710529327 
3 1 0 3 -0.014279630435092394158402839821064844727516174316 
3 1 0 4 -0.000000000060010607374078863904265368489632237470 
3 1 1 0 -0.000000000024916191606993697365787267250514247507 
3 1 1 1 -0.000000000200716987685803973642459374637780911144 
3 1 1 2 0.018805854212766870414696995794656686484813690186 
3 1 1 3 0.047728060027387900210449345195229398086667060852 
3 1 1 4 -0.000000000053523686618325735887477523355926223303 
3 1 2 0 -0.009822187888413110024021790422921185381710529327 
3 1 2 1 0.018805854212766870414696995794656686484813690186 
3 1 2 2 -0.000000000160654250927594102727434532962291768854 
3 1 2 3 -0.000000000270164434171302165555231256099943948357 
3 1 2 4 0.041411287770403079622205666510126320645213127136 
3 1 3 0 -0.014279630435092394158402839821064844727516174316 
3 1 3 1 0.047728060027387900210449345195229398086667060852 
3 1 3 2 -0.000000000270164434171302165555231256099943948357 
3 1 3 3 -0.000000000232789446678432479162501600455925654387 
3 1 3 4 0.009114824321102952056627977128755446756258606911 
3 1 4 0 -0.000000000060010607374078863904265368489632237470 
3 1 4 1 -0.000000000053523686618325735887477523355926223303 
3 1 4 2 0.041411287770403079622205666510126320645213127136 
3 1 4 3 0.009114824321102952056627977128755446756258606911 
3 1 4 4 -0.000000000106753174127573484050723884308808919741 
3 1 5 5 0.020444807570316376327257401612769172061234712601 
3 1 5 6 -0.006348395210178751739416025401396836969070136547 
3 1 6 5 -0.006348395210178751739416025401396836969070136547 
3 1 6 6 0.031432456128703059605733471926214406266808509827 
3 1 7 7 -0.020444807888739025686364314537968311924487352371 
3 1 7 8 0.006348394873056812000300386245044137467630207539 
3 1 8 7 0.006348394873056812000300386245044137467630207539 
3 1 8 8 -0.031432456510236732316609931103812414221465587616 
3 2 0 0 0.250994983382710867836351553705753758549690246582 
3 2 0 1 0.005418783961177593179459055505731157609261572361 
3 2 0 2 0.000000000016685894428955332351866003293139328889 
3 2 0 3 0.000000000012344567318836184750818762978497034055 
3 2 0 4 0.005228174246707724057148247709392308024689555168 
3 2 1 0 0.005418783961177593179459055505731157609261572361 
3 2 1 1 0.081297168847692155568829264211672125384211540222 
3 2 1 2 0.000000000024359804724451627686021559782147960505 
3 2 1 3 -0.000000000270164453200320842096715523439343087375 
3 2 1 4 0.071906753721470775819746279466926353052258491516 
3 2 2 0 0.000000000016685894428955332351866003293139328889 
3 2 2 1 0.000000000024359804724451627686021559782147960505 
3 2 2 2 0.077409562239072818301544032237870851531624794006 
3 2 2 3 0.086448223160816545229678808937023859471082687378 
3 2 2 4 0.000000000083326105116874292499939969047773047350 
3 2 3 0 0.000000000012344567318836184750818762978497034055 
3 2 3 1 -0.000000000270164453200320842096715523439343087375 
3 2 3 2 0.086448223160816545229678808937023859471082687378 
3 2 3 3 0.088218764196484708572931765502289636060595512390 
3 2 3 4 0.000000000122789583502133756338914327699285422568 
3 2 4 0 0.005228174246707724057148247709392308024689555168 
3 2 4 1 0.071906753721470775819746279466926353052258491516 
3 2 4 2 0.000000000083326105116874292499939969047773047350 
3 2 4 3 0.000000000122789583502133756338914327699285422568 
3 2 4 4 0.056669612096460292294253235922951716929674148560 
3 2 5 5 0.055019123141548977040660162174390279687941074371 
3 2 5 6 0.064788163961395334178305915884266141802072525024 
3 2 6 5 0.064788163961395334178305915884266141802072525024 
3 2 6 6 0.067745073743805797605865848254325101152062416077 
3 2 7 7 0.055019123300671893272983936640230240300297737122 
3 2 7 8 0.064788163832855572010771538771223276853561401367 
3 2 8 7 0.064788163832855572010771538771223276853561401367 
3 2 8 8 0.067745073941306799270023475401103496551513671875 
3 3 0 0 0.729814725515521844911859261628706008195877075195 
3 3 0 1 0.008411640436198143319646014504087361274287104607 
3 3 0 2 0.000000000066234113789900438303004381879190987092 
3 3 0 3 0.000000000076879552996357656408088487864915805403 
3 3 0 4 0.008032804871843981717183247326374839758500456810 
3 3 1 0 0.008411640436198143319646014504087361274287104607 
3 3 1 1 0.492079201851413405854884786094771698117256164551 
3 3 1 2 -0.000000000457617728500986538364703193337845732458 
3 3 1 3 -0.000000000232789385451502919832655891241302015260 
3 3 1 4 0.081788234625857963999706612412410322576761245728 
3 3 2 0 0.000000000066234113789900438303004381879190987092 
3 3 2 1 -0.000000000457617728500986538364703193337845732458 
3 3 2 2 0.489740144032003665852670337699237279593944549561 
3 3 2 3 0.088218764196484666939568342058919370174407958984 
3 3 2 4 0.000000000294815376904416885650572766053301165812 
3 3 3 0 0.000000000076879552996357656408088487864915805403 
3 3 3 1 -0.000000000232789385451502919832655891241302015260 
3 3 3 2 0.088218764196484666939568342058919370174407958984 
3 3 3 3 0.513807571159295872753602907323511317372322082520 
3 3 3 4 -0.000000000391172653540746220746093797515641199425 
3 3 4 0 0.008032804871843981717183247326374839758500456810 
3 3 4 1 0.081788234625857963999706612412410322576761245728 
3 3 4 2 0.000000000294815376904416885650572766053301165812 
3 3 4 3 -0.000000000391172653540746220746093797515641199425 
3 3 4 4 0.475887854163160650688979558253777213394641876221 
3 3 5 5 0.471667344922165998610807946533896028995513916016 
3 3 5 6 0.067745073568039076983282598121149931102991104126 
3 3 6 5 0.067745073568039076983282598121149931102991104126 
3 3 6 6 0.490505734377194080320094826674903742969036102295 
3 3 7 7 0.471667344389649523250795937201473861932754516602 
3 3 7 8 0.067745074117074019492967806854721857234835624695 
3 3 8 7 0.067745074117074019492967806854721857234835624695 
3 3 8 8 0.490505734003143845090022523436346091330051422119 
3 4 0 0 0.000000000111013291212682746451072713245872281007 
3 4 0 1 -0.000000000009548075405056324877579518317638473945 
3 4 0 2 -0.013984966592480220851091310407809942262247204781 
3 4 0 3 -0.020111514748036782296303215389343677088618278503 
3 4 0 4 -0.000000000059106074011940415435795159737608628348 
3 4 1 0 -0.000000000009548075405056324877579518317638473945 
3 4 1 1 0.000000000079289645428041164755550429532604539418 
3 4 1 2 0.096308702129033127437018890759645728394389152527 
3 4 1 3 0.009114824321102927770499313453456124989315867424 
3 4 1 4 0.000000000062095227566880562691808975728235964198 
3 4 2 0 -0.013984966592480220851091310407809942262247204781 
3 4 2 1 0.096308702129033127437018890759645728394389152527 
3 4 2 2 0.000000000068482614571556757465664588835352333263 
3 4 2 3 0.000000000122789664002450997493109952074519242160 
3 4 2 4 -0.019073223511631407639521640362545440439134836197 
3 4 3 0 -0.020111514748036782296303215389343677088618278503 
3 4 3 1 0.009114824321102927770499313453456124989315867424 
3 4 3 2 0.000000000122789664002450997493109952074519242160 
3 4 3 3 -0.000000000391172634555349740988205997638260669191 
3 4 3 4 0.101743401210324282968322506803815485909581184387 
3 4 4 0 -0.000000000059106074011940415435795159737608628348 
3 4 4 1 0.000000000062095227566880562691808975728235964198 
3 4 4 2 -0.019073223511631407639521640362545440439134836197 
3 4 4 3 0.101743401210324282968322506803815485909581184387 
3 4 4 4 0.000000000532662936406292286325991902629084506771 
3 4 5 5 -0.056564954926174110250158832968736533075571060181 
3 4 5 6 0.058037346638650337549147906202051672153174877167 
3 4 6 5 0.058037346638650337549147906202051672153174877167 
3 4 6 6 -0.039533521630531733015434525668752030469477176666 
3 4 7 7 0.056564955004004137395501317087109782733023166656 
3 4 7 8 -0.058037346583414139988832403105334378778934478760 
3 4 8 7 -0.058037346583414139988832403105334378778934478760 
3 4 8 8 0.039533521713454734813897317735609249211847782135 
4 0 0 0 0.325724719345996671648890696815215051174163818359 
4 0 0 1 0.043608868356747931827044340025167912244796752930 
4 0 0 2 0.000000000029695227840255471142213994362180073949 
4 0 0 3 -0.000000000067118079392134539443853791240712780564 
4 0 0 4 0.049451348841524654653678538807071163319051265717 
4 0 1 0 0.043608868356747931827044340025167912244796752930 
4 0 1 1 0.009641580832651224300389181109949277015402913094 
4 0 1 2 -0.000000000046350088115857449144108320103225412412 
4 0 1 3 -0.000000000060010606972756886882831761013783189451 
4 0 1 4 0.010843858101250864953146724189991800813004374504 
4 0 2 0 0.000000000029695227840255471142213994362180073949 
4 0 2 1 -0.000000000046350088115857449144108320103225412412 
4 0 2 2 0.003710148471741758855607651312880079785827547312 
4 0 2 3 0.005228174246707711046722177883339099935255944729 
4 0 2 4 -0.000000000011901015541226759621162845093067517155 
4 0 3 0 -0.000000000067118079392134539443853791240712780564 
4 0 3 1 -0.000000000060010606972756886882831761013783189451 
4 0 3 2 0.005228174246707711046722177883339099935255944729 
4 0 3 3 0.008032804871844028554717098700166388880461454391 
4 0 3 4 -0.000000000059106040024372829942570298222825897483 
4 0 4 0 0.049451348841524654653678538807071163319051265717 
4 0 4 1 0.010843858101250864953146724189991800813004374504 
4 0 4 2 -0.000000000011901015541226759621162845093067517155 
4 0 4 3 -0.000000000059106040024372829942570298222825897483 
4 0 4 4 0.012577641129295552210876074639145372202619910240 
4 0 5 5 0.003710148483150907654931627277505867823492735624 
4 0 5 6 0.005228174233752496020966038514643514645285904408 
4 0 6 5 0.005228174233752496020966038514643514645285904408 
4 0 6 6 0.008032804868775124049196101339020970044657588005 
4 0 7 7 0.003710148460332627403518435116325235867407172918 
4 0 7 8 0.005228174259662950358606980927334006992168724537 
4 0 8 7 0.005228174259662950358606980927334006992168724537 
4 0 8 8 0.008032804874913113471479597649249626556411385536 
4 1 0 0 0.287446712796466385952953714877367019653320312500 
4 1 0 1 0.010323561351193420027039238107136043254286050797 
4 1 0 2 -0.000000000024613644627040375846560582573374631465 
4 1 0 3 -0.000000000060700000661069518186063742604119397583 
4 1 0 4 0.010843858101250890973998863842098216991871595383 
4 1 1 0 0.010323561351193420027039238107136043254286050797 
4 1 1 1 0.087806940388447982104302980133070377632975578308 
4 1 1 2 0.000000000042590697106121211054641229054595896741 
4 1 1 3 -0.000000000053523670603050285676793862421618541703 
4 1 1 4 0.073555231872912699153665982976235682144761085510 
4 1 2 0 -0.000000000024613644627040375846560582573374631465 
4 1 2 1 0.000000000042590697106121211054641229054595896741 
4 1 2 2 0.068529990757096218012556221310660475865006446838 
4 1 2 3 0.071906753721470706430807240394642576575279235840 
4 1 2 4 0.000000000268626192619666852301474335718012298457 
4 1 3 0 -0.000000000060700000661069518186063742604119397583 
4 1 3 1 -0.000000000053523670603050285676793862421618541703 
4 1 3 2 0.071906753721470706430807240394642576575279235840 
4 1 3 3 0.081788234625858005633070035855780588462948799133 
4 1 3 4 0.000000000062095237904917683930544614057112084993 
4 1 4 0 0.010843858101250890973998863842098216991871595383 
4 1 4 1 0.073555231872912699153665982976235682144761085510 
4 1 4 2 0.000000000268626192619666852301474335718012298457 
4 1 4 3 0.000000000062095237904917683930544614057112084993 
4 1 4 4 0.065263714797115041088559905801957938820123672485 
4 1 5 5 0.068529990806328919261680709951178869232535362244 
4 1 5 6 0.071906753704954973205332180441473610699176788330 
4 1 6 5 0.071906753704954973205332180441473610699176788330 
4 1 6 6 0.081788234703837101036150158961390843614935874939 
4 1 7 7 0.068529990707864141263883084320696070790290832520 
4 1 7 8 0.071906753737986897623279958224884467199444770813 
4 1 8 7 0.071906753737986897623279958224884467199444770813 
4 1 8 8 0.081788234547879049007867990894737886264920234680 
4 2 0 0 0.000000000578898794537783721264738613773367936766 
4 2 0 1 0.000000000011873593944799472227097543453044892203 
4 2 0 2 -0.006725054465621229347893628158772116876207292080 
4 2 0 3 -0.009810637897609527161013609486417408334091305733 
4 2 0 4 -0.000000000011900973510234307001101963785494319836 
4 2 1 0 0.000000000011873593944799472227097543453044892203 
4 2 1 1 0.000000000183723230981594530877853976846836303594 
4 2 1 2 -0.010777216099095876522540038422448560595512390137 
4 2 1 3 0.041411287770403093499993474324583075940608978271 
4 2 1 4 0.000000000268626215369277749657472842415018021711 
4 2 2 0 -0.006725054465621229347893628158772116876207292080 
4 2 2 1 -0.010777216099095876522540038422448560595512390137 
4 2 2 2 0.000000000179518739036290319796562720000565605005 
4 2 2 3 0.000000000083326088113534909317114962590267168707 
4 2 2 4 0.047236801672799082207898635488163563422858715057 
4 2 3 0 -0.009810637897609527161013609486417408334091305733 
4 2 3 1 0.041411287770403093499993474324583075940608978271 
4 2 3 2 0.000000000083326088113534909317114962590267168707 
4 2 3 3 0.000000000294815360116223871070340045719149202341 
4 2 3 4 -0.019073223511631348658923457151104230433702468872 
4 2 4 0 -0.000000000011900973510234307001101963785494319836 
4 2 4 1 0.000000000268626215369277749657472842415018021711 
4 2 4 2 0.047236801672799082207898635488163563422858715057 
4 2 4 3 -0.019073223511631348658923457151104230433702468872 
4 2 4 4 0.000000000038505436051101027579435243097805141588 
4 2 5 5 0.031410067649874549855493199856937280856072902679 
4 2 5 6 -0.026120720807402866836532950856053503230214118958 
4 2 6 5 -0.026120720807402866836532950856053503230214118958 
4 2 6 6 0.039573140798783171256935986548342043533921241760 
4 2 7 7 -0.031410067399762563178367003047242178581655025482 
4 2 7 8 0.026120721103713846061866732384260103572160005569 
4 2 8 7 0.026120721103713846061866732384260103572160005569 
4 2 8 8 -0.039573140491903746607249559019692242145538330078 
4 3 0 0 0.000000000111013291212682746451072713245872281007 
4 3 0 1 -0.000000000009548075405056324877579518317638473945 
4 3 0 2 -0.013984966592480220851091310407809942262247204781 
4 3 0 3 -0.020111514748036782296303215389343677088618278503 
4 3 0 4 -0.000000000059106074011940415435795159737608628348 
4 3 1 0 -0.000000000009548075405056324877579518317638473945 
4 3 1 1 0.000000000079289645428041164755550429532604539418 
4 3 1 2 0.096308702129033127437018890759645728394389152527 
4 3 1 3 0.009114824321102927770499313453456124989315867424 
4 3 1 4 0.000000000062095227566880562691808975728235964198 
4 3 2 0 -0.013984966592480220851091310407809942262247204781 
4 3 2 1 0.096308702129033127437018890759645728394389152527 
4 3 2 2 0.000000000068482614571556757465664588835352333263 
4 3 2 3 0.000000000122789664002450997493109952074519242160 
4 3 2 4 -0.019073223511631407639521640362545440439134836197 
4 3 3 0 -0.020111514748036782296303215389343677088618278503 
4 3 3 1 0.009114824321102927770499313453456124989315867424 
4 3 3 2 0.000000000122789664002450997493109952074519242160 
4 3 3 3 -0.000000000391172634555349740988205997638260669191 
4 3 3 4 0.101743401210324282968322506803815485909581184387 
4 3 4 0 -0.000000000059106074011940415435795159737608628348 
4 3 4 1 0.000000000062095227566880562691808975728235964198 
4 3 4 2 -0.019073223511631407639521640362545440439134836197 
4 3 4 3 0.101743401210324282968322506803815485909581184387 
4 3 4 4 0.000000000532662936406292286325991902629084506771 
4 3 5 5 -0.056564954926174110250158832968736533075571060181 
4 3 5 6 0.058037346638650337549147906202051672153174877167 
4 3 6 5 0.058037346638650337549147906202051672153174877167 
4 3 6 6 -0.039533521630531733015434525668752030469477176666 
4 3 7 7 0.056564955004004137395501317087109782733023166656 
4 3 7 8 -0.058037346583414139988832403105334378778934478760 
4 3 8 7 -0.058037346583414139988832403105334378778934478760 
4 3 8 8 0.039533521713454734813897317735609249211847782135 
4 4 0 0 0.691023312162061364993803636025404557585716247559 
4 4 0 1 0.012119717389993846581863756739494419889524579048 
4 4 0 2 -0.000000000068377310818914117246380968140329059679 
4 4 0 3 -0.000000000127155636362027632535465215823933249339 
4 4 0 4 0.012577641129295515781683079126196389552205801010 
4 4 1 0 0.012119717389993846581863756739494419889524579048 
4 4 1 1 0.468424535412574061243873302373685874044895172119 
4 4 1 2 0.000000000466334173398119319897681123165966710076 
4 4 1 3 -0.000000000106753153083886942464886260495404712856 
4 4 1 4 0.065263714797115068844135521430871449410915374756 
4 4 2 0 -0.000000000068377310818914117246380968140329059679 
4 4 2 1 0.000000000466334173398119319897681123165966710076 
4 4 2 2 0.457756532103991753412941534406854771077632904053 
4 4 2 3 0.056669612096460250660889812479581451043486595154 
4 4 2 4 0.000000000038505492902258381393565400685474742204 
4 4 3 0 -0.000000000127155636362027632535465215823933249339 
4 4 3 1 -0.000000000106753153083886942464886260495404712856 
4 4 3 2 0.056669612096460250660889812479581451043486595154 
4 4 3 3 0.475887854163160817222433252027258276939392089844 
4 4 3 4 0.000000000532662945815134264426760069000010844320 
4 4 4 0 0.012577641129295515781683079126196389552205801010 
4 4 4 1 0.065263714797115068844135521430871449410915374756 
4 4 4 2 0.000000000038505492902258381393565400685474742204 
4 4 4 3 0.000000000532662945815134264426760069000010844320 
4 4 4 4 0.459794216193058602470955520402640104293823242188 
4 4 5 5 0.457756531828301005404568968515377491712570190430 
4 4 5 6 0.056669612378504811978086053159131552092730998993 
4 4 6 5 0.056669612378504811978086053159131552092730998993 
4 4 6 6 0.475887853971813323816775209706975147128105163574 
4 4 7 7 0.457756532379684666356212119353585876524448394775 
4 4 7 8 0.056669611814416216699630268749388051219284534454 
4 4 8 7 0.056669611814416216699630268749388051219284534454 
4 4 8 8 0.475887854354509309828813456988427788019180297852 
5 5 0 0 0.631037353337111306395001975033665075898170471191 
5 5 0 1 0.003887735319113586919537173258731854730285704136 
5 5 0 2 0.003933628973496089073491610577093524625524878502 
5 5 0 3 0.004779457353645555524324084473164475639350712299 
5 5 0 4 0.003710148483150893343462950468847338925115764141 
5 5 1 0 0.003887735319113586919537173258731854730285704136 
5 5 1 1 0.483663565110163395921460960380500182509422302246 
5 5 1 2 -0.058918939622124959221149964605501736514270305634 
5 5 1 3 0.020444807570316390205045209427225927356630563736 
5 5 1 4 0.068529990806328947017256325580092379823327064514 
5 5 2 0 0.003933628973496089073491610577093524625524878502 
5 5 2 1 -0.058918939622124959221149964605501736514270305634 
5 5 2 2 0.462365623690665694667245588789228349924087524414 
5 5 2 3 0.055019123141549067246280912968359189108014106750 
5 5 2 4 0.031410067649874549855493199856937280856072902679 
5 5 3 0 0.004779457353645555524324084473164475639350712299 
5 5 3 1 0.020444807570316390205045209427225927356630563736 
5 5 3 2 0.055019123141549067246280912968359189108014106750 
5 5 3 3 0.471667344922165998610807946533896028995513916016 
5 5 3 4 -0.056564954926174131066840544690421666018664836884 
5 5 4 0 0.003710148483150893343462950468847338925115764141 
5 5 4 1 0.068529990806328947017256325580092379823327064514 
5 5 4 2 0.031410067649874549855493199856937280856072902679 
5 5 4 3 -0.056564954926174131066840544690421666018664836884 
5 5 4 4 0.457756531828300949893417737257550470530986785889 
5 5 5 5 0.535332971853982875209965186513727530837059020996 
5 5 5 6 0.034442708659195804543617924764475901611149311066 
5 5 6 5 0.034442708659195804543617924764475901611149311066 
5 5 6 6 0.528682295177032912647518969606608152389526367188 
5 5 7 7 0.415452960988530795027884323644684627652168273926 
5 5 7 8 0.097985976796854279413651056529488414525985717773 
5 5 8 7 0.097985976796854279413651056529488414525985717773 
5 5 8 8 0.432725193498892657384402582465554587543010711670 
5 6 0 0 0.250994983387609560399056363166891969740390777588 
5 6 0 1 0.005418783960770786646554686427634806022979319096 
5 6 0 2 -0.003524458695159806732866147882532459334470331669 
5 6 0 3 -0.005308132634598522296698330791286934982053935528 
5 6 0 4 0.005228174233752496888327776503047061851248145103 
5 6 1 0 0.005418783960770786646554686427634806022979319096 
5 6 1 1 0.081297168861174107235001429216936230659484863281 
5 6 1 2 0.053204854344897217766074959399702493101358413696 
5 6 1 3 -0.006348395210178770821374261146274875500239431858 
5 6 1 4 0.071906753704955028716483411699300631880760192871 
5 6 2 0 -0.003524458695159806732866147882532459334470331669 
5 6 2 1 0.053204854344897217766074959399702493101358413696 
5 6 2 2 0.055019123217955240301435537730867508798837661743 
5 6 2 3 0.064788163961395417445032762771006673574447631836 
5 6 2 4 -0.026120720807402908469896374299423769116401672363 
5 6 3 0 -0.005308132634598522296698330791286934982053935528 
5 6 3 1 -0.006348395210178770821374261146274875500239431858 
5 6 3 2 0.064788163961395417445032762771006673574447631836 
5 6 3 3 0.067745073568039215761160676265717484056949615479 
5 6 3 4 0.058037346638650372243617425738193560391664505005 
5 6 4 0 0.005228174233752496888327776503047061851248145103 
5 6 4 1 0.071906753704955028716483411699300631880760192871 
5 6 4 2 -0.026120720807402908469896374299423769116401672363 
5 6 4 3 0.058037346638650372243617425738193560391664505005 
5 6 4 4 0.056669612378504770344722629715761286206543445587 
5 6 5 5 0.034442708659195804543617924764475901611149311066 
5 6 5 6 0.121046126348891169843824400231824256479740142822 
5 6 6 5 0.121046126348891169843824400231824256479740142822 
5 6 6 6 0.053197754256941440220707306707481620833277702332 
5 6 7 7 0.097985976808100921919830739170720335096120834351 
5 6 7 8 0.030190260709328578525578734570444794371724128723 
5 6 8 7 0.030190260709328578525578734570444794371724128723 
5 6 8 8 0.102766083790360854277601276862696977332234382629 
6 5 0 0 0.250994983387609560399056363166891969740390777588 
6 5 0 1 0.005418783960770786646554686427634806022979319096 
6 5 0 2 -0.003524458695159806732866147882532459334470331669 
6 5 0 3 -0.005308132634598522296698330791286934982053935528 
6 5 0 4 0.005228174233752496888327776503047061851248145103 
6 5 1 0 0.005418783960770786646554686427634806022979319096 
6 5 1 1 0.081297168861174107235001429216936230659484863281 
6 5 1 2 0.053204854344897217766074959399702493101358413696 
6 5 1 3 -0.006348395210178770821374261146274875500239431858 
6 5 1 4 0.071906753704955028716483411699300631880760192871 
6 5 2 0 -0.003524458695159806732866147882532459334470331669 
6 5 2 1 0.053204854344897217766074959399702493101358413696 
6 5 2 2 0.055019123217955240301435537730867508798837661743 
6 5 2 3 0.064788163961395417445032762771006673574447631836 
6 5 2 4 -0.026120720807402908469896374299423769116401672363 
6 5 3 0 -0.005308132634598522296698330791286934982053935528 
6 5 3 1 -0.006348395210178770821374261146274875500239431858 
6 5 3 2 0.064788163961395417445032762771006673574447631836 
6 5 3 3 0.067745073568039215761160676265717484056949615479 
6 5 3 4 0.058037346638650372243617425738193560391664505005 
6 5 4 0 0.005228174233752496888327776503047061851248145103 
6 5 4 1 0.071906753704955028716483411699300631880760192871 
6 5 4 2 -0.026120720807402908469896374299423769116401672363 
6 5 4 3 0.058037346638650372243617425738193560391664505005 
6 5 4 4 0.056669612378504770344722629715761286206543445587 
6 5 5 5 0.034442708659195804543617924764475901611149311066 
6 5 5 6 0.121046126348891169843824400231824256479740142822 
6 5 6 5 0.121046126348891169843824400231824256479740142822 
6 5 6 6 0.053197754256941440220707306707481620833277702332 
6 5 7 7 0.097985976808100921919830739170720335096120834351 
6 5 7 8 0.030190260709328578525578734570444794371724128723 
6 5 8 7 0.030190260709328578525578734570444794371724128723 
6 5 8 8 0.102766083790360854277601276862696977332234382629 
6 6 0 0 0.729814725510259942886648332205368205904960632324 
6 6 0 1 0.008411640436079391089374546197632298571988940239 
6 6 0 2 -0.000375760517130868556927303369974424640531651676 
6 6 0 3 -0.001194415432427812411367296085984435194404795766 
6 6 0 4 0.008032804868775157008942144898355763871222734451 
6 6 1 0 0.008411640436079391089374546197632298571988940239 
6 6 1 1 0.492079201842894720098087191217928193509578704834 
6 6 1 2 -0.033638654217190533390891005183220840990543365479 
6 6 1 3 0.031432456128703004094582240668387385085225105286 
6 6 1 4 0.081788234703837267569603852734871907159686088562 
6 6 2 0 -0.000375760517130868556927303369974424640531651676 
6 6 2 1 -0.033638654217190533390891005183220840990543365479 
6 6 2 2 0.471667344657819342934601536398986354470252990723 
6 6 2 3 0.067745073743805811483653656068781856447458267212 
6 6 2 4 0.039573140798783219829193313898940687067806720734 
6 6 3 0 -0.001194415432427812411367296085984435194404795766 
6 6 3 1 0.031432456128703004094582240668387385085225105286 
6 6 3 2 0.067745073743805811483653656068781856447458267212 
6 6 3 3 0.490505734377194024808943595417076721787452697754 
6 6 3 4 -0.039533521630531753832116237390437163412570953369 
6 6 4 0 0.008032804868775157008942144898355763871222734451 
6 6 4 1 0.081788234703837267569603852734871907159686088562 
6 6 4 2 0.039573140798783219829193313898940687067806720734 
6 6 4 3 -0.039533521630531753832116237390437163412570953369 
6 6 4 4 0.475887853971813268305623978449148125946521759033 
6 6 5 5 0.528682295177032690602914044575300067663192749023 
6 6 5 6 0.053197754256941551243009769223135663196444511414 
6 6 6 5 0.053197754256941551243009769223135663196444511414 
6 6 6 6 0.553920427545834259674961685959715396165847778320 
6 6 7 7 0.432725193506177219227026853332063183188438415527 
6 6 7 8 0.102766083780690672955238085251039592549204826355 
6 6 8 7 0.102766083780690672955238085251039592549204826355 
6 6 8 8 0.450392877797256119265512097626924514770507812500 
7 7 0 0 0.631037353362248198962447531812358647584915161133 
7 7 0 1 0.003887735318685629336971087965935112151782959700 
7 7 0 2 -0.003933628974577957175540188217155446182005107403 
7 7 0 3 -0.004779457372265976701497525169770597130991518497 
7 7 0 4 0.003710148460332652557008836780028104840312153101 
7 7 1 0 0.003887735318685629336971087965935112151782959700 
7 7 1 1 0.483663565141480344955482451041461899876594543457 
7 7 1 2 0.058918939628195055036030680639669299125671386719 
7 7 1 3 -0.020444807888739011808576506723511556629091501236 
7 7 1 4 0.068529990707864127386095276506239315494894981384 
7 7 2 0 -0.003933628974577957175540188217155446182005107403 
7 7 2 1 0.058918939628195055036030680639669299125671386719 
7 7 2 2 0.462365623683391291365296638105064630508422851562 
7 7 2 3 0.055019123300671816945150993660718086175620555878 
7 7 2 4 -0.031410067399762590933942618676155689172446727753 
7 7 3 0 -0.004779457372265976701497525169770597130991518497 
7 7 3 1 -0.020444807888739011808576506723511556629091501236 
7 7 3 2 0.055019123300671816945150993660718086175620555878 
7 7 3 3 0.471667344389649523250795937201473861932754516602 
7 7 3 4 0.056564955004004192906652548344936803914606571198 
7 7 4 0 0.003710148460332652557008836780028104840312153101 
7 7 4 1 0.068529990707864127386095276506239315494894981384 
7 7 4 2 -0.031410067399762590933942618676155689172446727753 
7 7 4 3 0.056564955004004192906652548344936803914606571198 
7 7 4 4 0.457756532379684888400817044384893961250782012939 
7 7 5 5 0.415452960988530850539035554902511648833751678467 
7 7 5 6 0.097985976808100949675406354799633845686912536621 
7 7 6 5 0.097985976808100949675406354799633845686912536621 
7 7 6 6 0.432725193506177274738178084589890204370021820068 
7 7 7 7 0.535332971875337015887907909927889704704284667969 
7 7 7 8 0.034442708656217776996832924396585440263152122498 
7 7 8 7 0.034442708656217776996832924396585440263152122498 
7 7 8 8 0.528682295193725115822758198191877454519271850586 
7 8 0 0 0.250994983377813951630486144495080225169658660889 
7 8 0 1 0.005418783961584416192236446363494906108826398849 
7 8 0 2 0.003524458695448261322941130302410783770028501749 
7 8 0 3 0.005308132610848117008406354955241113202646374702 
7 8 0 4 0.005228174259662963369033050753387215081602334976 
7 8 1 0 0.005418783961584416192236446363494906108826398849 
7 8 1 1 0.081297168834211064325501183702726848423480987549 
7 8 1 2 -0.053204854352005927220492509377436363138258457184 
7 8 1 3 0.006348394873056824143364718082693798351101577282 
7 8 1 4 0.071906753737986980890006805111624998971819877625 
7 8 2 0 0.003524458695448261322941130302410783770028501749 
7 8 2 1 -0.053204854352005927220492509377436363138258457184 
7 8 2 2 0.055019123224265810423450062671690830029547214508 
7 8 2 3 0.064788163832855613644134962214593542739748954773 
7 8 2 4 0.026120721103713814836844164801732404157519340515 
7 8 3 0 0.005308132610848117008406354955241113202646374702 
7 8 3 1 0.006348394873056824143364718082693798351101577282 
7 8 3 2 0.064788163832855613644134962214593542739748954773 
7 8 3 3 0.067745074117074102759694653741462389007210731506 
7 8 3 4 -0.058037346583414153866620210919791134074330329895 
7 8 4 0 0.005228174259662963369033050753387215081602334976 
7 8 4 1 0.071906753737986980890006805111624998971819877625 
7 8 4 2 0.026120721103713814836844164801732404157519340515 
7 8 4 3 -0.058037346583414153866620210919791134074330329895 
7 8 4 4 0.056669611814416383233083962522869114764034748077 
7 8 5 5 0.097985976796854279413651056529488414525985717773 
7 8 5 6 0.030190260709328585464472638477673172019422054291 
7 8 6 5 0.030190260709328585464472638477673172019422054291 
7 8 6 6 0.102766083780690631321874661807669326663017272949 
7 8 7 7 0.034442708656217783935726828303813817910850048065 
7 8 7 8 0.121046126348336946509931522086844779551029205322 
7 8 8 7 0.121046126348336946509931522086844779551029205322 
7 8 8 8 0.053197754250090711902743123573600314557552337646 
8 7 0 0 0.250994983377813951630486144495080225169658660889 
8 7 0 1 0.005418783961584416192236446363494906108826398849 
8 7 0 2 0.003524458695448261322941130302410783770028501749 
8 7 0 3 0.005308132610848117008406354955241113202646374702 
8 7 0 4 0.005228174259662963369033050753387215081602334976 
8 7 1 0 0.005418783961584416192236446363494906108826398849 
8 7 1 1 0.081297168834211064325501183702726848423480987549 
8 7 1 2 -0.053204854352005927220492509377436363138258457184 
8 7 1 3 0.006348394873056824143364718082693798351101577282 
8 7 1 4 0.071906753737986980890006805111624998971819877625 
8 7 2 0 0.003524458695448261322941130302410783770028501749 
8 7 2 1 -0.053204854352005927220492509377436363138258457184 
8 7 2 2 0.055019123224265810423450062671690830029547214508 
8 7 2 3 0.064788163832855613644134962214593542739748954773 
8 7 2 4 0.026120721103713814836844164801732404157519340515 
8 7 3 0 0.005308132610848117008406354955241113202646374702 
8 7 3 1 0.006348394873056824143364718082693798351101577282 
8 7 3 2 0.064788163832855613644134962214593542739748954773 
8 7 3 3 0.067745074117074102759694653741462389007210731506 
8 7 3 4 -0.058037346583414153866620210919791134074330329895 
8 7 4 0 0.005228174259662963369033050753387215081602334976 
8 7 4 1 0.071906753737986980890006805111624998971819877625 
8 7 4 2 0.026120721103713814836844164801732404157519340515 
8 7 4 3 -0.058037346583414153866620210919791134074330329895 
8 7 4 4 0.056669611814416383233083962522869114764034748077 
8 7 5 5 0.097985976796854279413651056529488414525985717773 
8 7 5 6 0.030190260709328585464472638477673172019422054291 
8 7 6 5 0.030190260709328585464472638477673172019422054291 
8 7 6 6 0.102766083780690631321874661807669326663017272949 
8 7 7 7 0.034442708656217783935726828303813817910850048065 
8 7 7 8 0.121046126348336946509931522086844779551029205322 
8 7 8 7 0.121046126348336946509931522086844779551029205322 
8 7 8 8 0.053197754250090711902743123573600314557552337646 
8 8 0 0 0.729814725520785523293909591302508488297462463379 
8 8 0 1 0.008411640436316975347197377743668766925111413002 
8 8 0 2 0.000375760516126952856356957521910544528509490192 
8 8 0 3 0.001194415394138999969575465343041287269443273544 
8 8 0 4 0.008032804874913205411823824420025630388408899307 
8 8 1 0 0.008411640436316975347197377743668766925111413002 
8 8 1 1 0.492079201859933645923916856190771795809268951416 
8 8 1 2 0.033638654224179082019574593687138985842466354370 
8 8 1 3 -0.031432456510236732316609931103812414221465587616 
8 8 1 4 0.081788234547879007374504567451367620378732681274 
8 8 2 0 0.000375760516126952856356957521910544528509490192 
8 8 2 1 0.033638654224179082019574593687138985842466354370 
8 8 2 2 0.471667344653995679326641266015940345823764801025 
8 8 2 3 0.067745073941306743758872244143276475369930267334 
8 8 2 4 -0.039573140491903739668355655112463864497840404510 
8 8 3 0 0.001194415394138999969575465343041287269443273544 
8 8 3 1 -0.031432456510236732316609931103812414221465587616 
8 8 3 2 0.067745073941306743758872244143276475369930267334 
8 8 3 3 0.490505734003143845090022523436346091330051422119 
8 8 3 4 0.039533521713454734813897317735609249211847782135 
8 8 4 0 0.008032804874913205411823824420025630388408899307 
8 8 4 1 0.081788234547879007374504567451367620378732681274 
8 8 4 2 -0.039573140491903739668355655112463864497840404510 
8 8 4 3 0.039533521713454734813897317735609249211847782135 
8 8 4 4 0.475887854354509420851115919504081830382347106934 
8 8 5 5 0.432725193498892657384402582465554587543010711670 
8 8 5 6 0.102766083790360882033176892491610487923026084900 
8 8 6 5 0.102766083790360882033176892491610487923026084900 
8 8 6 6 0.450392877797256119265512097626924514770507812500 
8 8 7 7 0.528682295193725226845060660707531496882438659668 
8 8 7 8 0.053197754250090670269379700130230048671364784241 
8 8 8 7 0.053197754250090670269379700130230048671364784241 
8 8 8 8 0.553920427558587391558830859139561653137207031250 
5 7 5 7 0.013027342739565857254735448123028618283569812775 
5 7 5 8 0.011195219508509639955162739965999207925051450729 
5 7 6 7 0.011195219509453114420383101901279587764292955399 
5 7 6 8 0.009036399688048495429382178656396717997267842293 
5 7 7 5 0.013027342739565857254735448123028618283569812775 
5 7 7 6 0.011195219509453114420383101901279587764292955399 
5 7 8 5 0.011195219508509639955162739965999207925051450729 
5 7 8 6 0.009036399688048495429382178656396717997267842293 
5 8 5 7 0.011195219508509641689886215942806302336975932121 
5 8 5 8 0.012405242564160430529529577370340120978653430939 
5 8 6 7 0.009254816698875265729151706750599259976297616959 
5 8 6 8 0.010236845176891034431276850114045373629778623581 
5 8 7 5 0.011195219508509641689886215942806302336975932121 
5 8 7 6 0.009254816698875265729151706750599259976297616959 
5 8 8 5 0.012405242564160430529529577370340120978653430939 
5 8 8 6 0.010236845176891034431276850114045373629778623581 
6 7 5 7 0.011195219509453116155106577878086682176217436790 
6 7 5 8 0.009254816698875263994428230773792165564373135567 
6 7 6 7 0.012405242565471794741194244693360815290361642838 
6 7 6 8 0.010236845177037578666356942846960009774193167686 
6 7 7 5 0.011195219509453116155106577878086682176217436790 
6 7 7 6 0.012405242565471794741194244693360815290361642838 
6 7 8 5 0.009254816698875263994428230773792165564373135567 
6 7 8 6 0.010236845177037578666356942846960009774193167686 
6 8 5 7 0.009036399688048497164105654633203812409192323685 
6 8 5 8 0.010236845176891030961829898160431184805929660797 
6 8 6 7 0.010236845177037578666356942846960009774193167686 
6 8 6 8 0.011650918484563902582928918150173558387905359268 
6 8 7 5 0.009036399688048497164105654633203812409192323685 
6 8 7 6 0.010236845177037578666356942846960009774193167686 
6 8 8 5 0.010236845176891030961829898160431184805929660797 
6 8 8 6 0.011650918484563902582928918150173558387905359268 
7 5 5 7 0.013027342739565857254735448123028618283569812775 
7 5 5 8 0.011195219508509639955162739965999207925051450729 
7 5 6 7 0.011195219509453114420383101901279587764292955399 
7 5 6 8 0.009036399688048495429382178656396717997267842293 
7 5 7 5 0.013027342739565857254735448123028618283569812775 
7 5 7 6 0.011195219509453114420383101901279587764292955399 
7 5 8 5 0.011195219508509639955162739965999207925051450729 
7 5 8 6 0.009036399688048495429382178656396717997267842293 
7 6 5 7 0.011195219509453116155106577878086682176217436790 
7 6 5 8 0.009254816698875263994428230773792165564373135567 
7 6 6 7 0.012405242565471794741194244693360815290361642838 
7 6 6 8 0.010236845177037578666356942846960009774193167686 
7 6 7 5 0.011195219509453116155106577878086682176217436790 
7 6 7 6 0.012405242565471794741194244693360815290361642838 
7 6 8 5 0.009254816698875263994428230773792165564373135567 
7 6 8 6 0.010236845177037578666356942846960009774193167686 
8 5 5 7 0.011195219508509641689886215942806302336975932121 
8 5 5 8 0.012405242564160430529529577370340120978653430939 
8 5 6 7 0.009254816698875265729151706750599259976297616959 
8 5 6 8 0.010236845176891034431276850114045373629778623581 
[...]
1 8 7 3 0.006348394946010004098735368671668766182847321033 
1 8 7 4 0.041411287787286567285693905660082236863672733307 
1 8 8 0 -0.014279630434351346310317687482438486767932772636 
1 8 8 1 0.047728060027736537995757259977835929021239280701 
1 8 8 2 0.006348395041783870366980391253264315309934318066 
1 8 8 3 -0.031432456343732310954930397883799741975963115692 
1 8 8 4 0.009114824239646353645771803542174893664196133614 
2 7 0 7 -0.003933628973199662128001907746011056588031351566 
2 7 0 8 -0.004779457361558769878939756381441839039325714111 
2 7 1 7 0.058918939621212571000619107053353218361735343933 
2 7 1 8 -0.020444807734553760436568836666992865502834320068 
2 7 2 7 0.059940005428225417993814971850952133536338806152 
2 7 2 8 -0.031771634067246493082770086857635760679841041565 
2 7 3 7 -0.031771633991559453114028599429730093106627464294 
2 7 3 8 0.047978550702514208281534990874206414446234703064 
2 7 4 7 -0.031410067599059822429641286589685478247702121735 
2 7 4 8 0.056564955071464848024298532891407376155257225037 
2 7 7 0 -0.003933628973199662128001907746011056588031351566 
2 7 7 1 0.058918939621212571000619107053353218361735343933 
2 7 7 2 0.059940005428225417993814971850952133536338806152 
2 7 7 3 -0.031771633991559453114028599429730093106627464294 
2 7 7 4 -0.031410067599059822429641286589685478247702121735 
2 7 8 0 -0.004779457361558769878939756381441839039325714111 
2 7 8 1 -0.020444807734553760436568836666992865502834320068 
2 7 8 2 -0.031771634067246493082770086857635760679841041565 
2 7 8 3 0.047978550702514208281534990874206414446234703064 
2 7 8 4 0.056564955071464848024298532891407376155257225037 
2 8 0 7 0.003524458696379254019070970116445096209645271301 
2 8 0 8 0.005308132624172273890394979645179773797281086445 
2 8 1 7 -0.053204854353691669044401635346730472519993782043 
2 8 1 8 0.006348395041783864295448225334439484868198633194 
2 8 2 7 -0.031771634067246500021663990764864138327538967133 
2 8 2 8 0.047003145752056205153301959853706648573279380798 
2 8 3 7 0.043852719822861437048988619835654390044510364532 
2 8 3 8 -0.024784164624471884813550204285093059297651052475 
2 8 4 7 0.026120721056311475838374036584355053491890430450 
2 8 4 8 -0.058037346671846262724514531328168231993913650513 
2 8 7 0 0.003524458696379254019070970116445096209645271301 
2 8 7 1 -0.053204854353691669044401635346730472519993782043 
2 8 7 2 -0.031771634067246500021663990764864138327538967133 
2 8 7 3 0.043852719822861437048988619835654390044510364532 
2 8 7 4 0.026120721056311475838374036584355053491890430450 
2 8 8 0 0.005308132624172273890394979645179773797281086445 
2 8 8 1 0.006348395041783864295448225334439484868198633194 
2 8 8 2 0.047003145752056205153301959853706648573279380798 
2 8 8 3 -0.024784164624471884813550204285093059297651052475 
2 8 8 4 -0.058037346671846262724514531328168231993913650513 
3 7 0 7 0.003524458711333334527682215053800973691977560520 
3 7 0 8 0.005308132646038745197647479301394923822954297066 
3 7 1 7 -0.053204854323906931867771419319979031570255756378 
3 7 1 8 0.006348394946010016241799700509318427066318690777 
3 7 2 7 -0.031771633991559453114028599429730093106627464294 
3 7 2 8 0.043852719822861437048988619835654390044510364532 
3 7 3 7 0.047003145625836205423464519981280318461358547211 
3 7 3 8 -0.024784164531150152527283481163067335728555917740 
3 7 4 7 0.026120720953778313322413140440403367392718791962 
3 7 4 8 -0.058037346623066837780768878474191296845674514771 
3 7 7 0 0.003524458711333334527682215053800973691977560520 
3 7 7 1 -0.053204854323906931867771419319979031570255756378 
3 7 7 2 -0.031771633991559453114028599429730093106627464294 
3 7 7 3 0.047003145625836205423464519981280318461358547211 
3 7 7 4 0.026120720953778313322413140440403367392718791962 
3 7 8 0 0.005308132646038745197647479301394923822954297066 
3 7 8 1 0.006348394946010016241799700509318427066318690777 
3 7 8 2 0.043852719822861437048988619835654390044510364532 
3 7 8 3 -0.024784164531150152527283481163067335728555917740 
3 7 8 4 -0.058037346623066837780768878474191296845674514771 
3 8 0 7 0.000375760549981413540833463660106872339383699000 
3 8 0 8 0.001194415461380642128411122548925504815997555852 
3 8 1 7 0.033638653993255218654923055510153062641620635986 
3 8 1 8 -0.031432456343732310954930397883799741975963115692 
3 8 2 7 0.047978550702514208281534990874206414446234703064 
3 8 2 8 -0.024784164624471863996868492563407926354557275772 
3 8 3 7 -0.024784164531150152527283481163067335728555917740 
3 8 3 8 0.051763774687269635543795942567157908342778682709 
3 8 4 7 -0.039573140657961781985196836330942460335791110992 
3 8 4 8 0.039533521551592266940478026526761823333799839020 
3 8 7 0 0.000375760549981413540833463660106872339383699000 
3 8 7 1 0.033638653993255218654923055510153062641620635986 
3 8 7 2 0.047978550702514208281534990874206414446234703064 
3 8 7 3 -0.024784164531150152527283481163067335728555917740 
3 8 7 4 -0.039573140657961781985196836330942460335791110992 
3 8 8 0 0.001194415461380642128411122548925504815997555852 
3 8 8 1 -0.031432456343732310954930397883799741975963115692 
3 8 8 2 -0.024784164624471863996868492563407926354557275772 
3 8 8 3 0.051763774687269635543795942567157908342778682709 
3 8 8 4 0.039533521551592266940478026526761823333799839020 
4 7 0 7 -0.006725054457250233611032008695929107489064335823 
4 7 0 8 -0.009810637884924212556714273603120091138407588005 
4 7 1 7 -0.010777216228003377515576310941014526179060339928 
4 7 1 8 0.041411287787286574224587809567310614511370658875 
4 7 2 7 -0.031410067599059815490747382682457100600004196167 
4 7 2 8 0.026120721056311465430033180723512487020343542099 
4 7 3 7 0.026120720953778323730753996301245933864265680313 
4 7 3 8 -0.039573140657961788924090740238170837983489036560 
4 7 4 7 0.047236801796616288695584984225206426344811916351 
4 7 4 8 -0.019073223744612975705248203439623466692864894867 
4 7 7 0 -0.006725054457250233611032008695929107489064335823 
4 7 7 1 -0.010777216228003377515576310941014526179060339928 
4 7 7 2 -0.031410067599059815490747382682457100600004196167 
4 7 7 3 0.026120720953778323730753996301245933864265680313 
4 7 7 4 0.047236801796616288695584984225206426344811916351 
4 7 8 0 -0.009810637884924212556714273603120091138407588005 
4 7 8 1 0.041411287787286574224587809567310614511370658875 
4 7 8 2 0.026120721056311465430033180723512487020343542099 
4 7 8 3 -0.039573140657961788924090740238170837983489036560 
4 7 8 4 -0.019073223744612975705248203439623466692864894867 
4 8 0 7 -0.013984966591701352561782911720911215525120496750 
4 8 0 8 -0.020111514744994635900399160277629562187939882278 
4 8 1 7 0.096308702213461550023509971651947125792503356934 
4 8 1 8 0.009114824239646386605517847101509687490761280060 
4 8 2 7 0.056564955071464848024298532891407376155257225037 
4 8 2 8 -0.058037346671846255785620627420939854346215724945 
4 8 3 7 -0.058037346623066851658556686288648052141070365906 
4 8 3 8 0.039533521551592260001584122619533445686101913452 
4 8 4 7 -0.019073223744612975705248203439623466692864894867 
4 8 4 8 0.101743401398077235042727295422082534059882164001 
4 8 7 0 -0.013984966591701352561782911720911215525120496750 
4 8 7 1 0.096308702213461550023509971651947125792503356934 
4 8 7 2 0.056564955071464848024298532891407376155257225037 
4 8 7 3 -0.058037346623066851658556686288648052141070365906 
4 8 7 4 -0.019073223744612975705248203439623466692864894867 
4 8 8 0 -0.020111514744994635900399160277629562187939882278 
4 8 8 1 0.009114824239646386605517847101509687490761280060 
4 8 8 2 -0.058037346671846255785620627420939854346215724945 
4 8 8 3 0.039533521551592260001584122619533445686101913452 
4 8 8 4 0.101743401398077235042727295422082534059882164001 
7 0 0 7 0.008722703773656567682870388580340659245848655701 
7 0 0 8 0.013371905243816036706894223584640712942928075790 
7 0 1 7 -0.013677696793652894743931192067520896671339869499 
7 0 1 8 -0.009822187887984527507323484485368680907413363457 
7 0 2 7 -0.003933628973199662128001907746011056588031351566 
7 0 2 8 0.003524458696379253151709232128041549003683030605 
7 0 3 7 0.003524458711333334094001346059599200088996440172 
7 0 3 8 0.000375760549981412998732377417354655335657298565 
7 0 4 7 -0.006725054457250232743670270707525560283102095127 
7 0 4 8 -0.013984966591701352561782911720911215525120496750 
7 0 7 0 0.008722703773656567682870388580340659245848655701 
7 0 7 1 -0.013677696793652894743931192067520896671339869499 
7 0 7 2 -0.003933628973199662128001907746011056588031351566 
7 0 7 3 0.003524458711333334094001346059599200088996440172 
7 0 7 4 -0.006725054457250232743670270707525560283102095127 
7 0 8 0 0.013371905243816036706894223584640712942928075790 
7 0 8 1 -0.009822187887984527507323484485368680907413363457 
7 0 8 2 0.003524458696379253151709232128041549003683030605 
7 0 8 3 0.000375760549981412998732377417354655335657298565 
7 0 8 4 -0.013984966591701352561782911720911215525120496750 
7 1 0 7 -0.013677696793652896478654668044327991083264350891 
7 1 0 8 -0.018978256316828784333594626332342159003019332886 
7 1 1 7 0.107756304613400424874392058427474694326519966125 
7 1 1 8 0.018805854205383883831492752847225347068160772324 
7 1 2 7 0.058918939621212571000619107053353218361735343933 
7 1 2 8 -0.053204854353691669044401635346730472519993782043 
7 1 3 7 -0.053204854323906938806665323227207409217953681946 
7 1 3 8 0.033638653993255225593816959417381440289318561554 
7 1 4 7 -0.010777216228003384454470214848242903826758265495 
7 1 4 8 0.096308702213461563901297779466403881087899208069 
7 1 7 0 -0.013677696793652896478654668044327991083264350891 
7 1 7 1 0.107756304613400424874392058427474694326519966125 
7 1 7 2 0.058918939621212571000619107053353218361735343933 
7 1 7 3 -0.053204854323906938806665323227207409217953681946 
7 1 7 4 -0.010777216228003384454470214848242903826758265495 
7 1 8 0 -0.018978256316828784333594626332342159003019332886 
7 1 8 1 0.018805854205383883831492752847225347068160772324 
7 1 8 2 -0.053204854353691669044401635346730472519993782043 
7 1 8 3 0.033638653993255225593816959417381440289318561554 
7 1 8 4 0.096308702213461563901297779466403881087899208069 
7 2 0 7 -0.003933628973199662128001907746011056588031351566 
7 2 0 8 -0.004779457361558769878939756381441839039325714111 
7 2 1 7 0.058918939621212571000619107053353218361735343933 
7 2 1 8 -0.020444807734553760436568836666992865502834320068 
7 2 2 7 0.059940005428225417993814971850952133536338806152 
7 2 2 8 -0.031771634067246493082770086857635760679841041565 
7 2 3 7 -0.031771633991559453114028599429730093106627464294 
7 2 3 8 0.047978550702514208281534990874206414446234703064 
7 2 4 7 -0.031410067599059822429641286589685478247702121735 
7 2 4 8 0.056564955071464848024298532891407376155257225037 
7 2 7 0 -0.003933628973199662128001907746011056588031351566 
7 2 7 1 0.058918939621212571000619107053353218361735343933 
7 2 7 2 0.059940005428225417993814971850952133536338806152 
7 2 7 3 -0.031771633991559453114028599429730093106627464294 
7 2 7 4 -0.031410067599059822429641286589685478247702121735 
7 2 8 0 -0.004779457361558769878939756381441839039325714111 
7 2 8 1 -0.020444807734553760436568836666992865502834320068 
7 2 8 2 -0.031771634067246493082770086857635760679841041565 
7 2 8 3 0.047978550702514208281534990874206414446234703064 
7 2 8 4 0.056564955071464848024298532891407376155257225037 
7 3 0 7 0.003524458711333334527682215053800973691977560520 
7 3 0 8 0.005308132646038745197647479301394923822954297066 
7 3 1 7 -0.053204854323906931867771419319979031570255756378 
7 3 1 8 0.006348394946010016241799700509318427066318690777 
7 3 2 7 -0.031771633991559453114028599429730093106627464294 
7 3 2 8 0.043852719822861437048988619835654390044510364532 
7 3 3 7 0.047003145625836205423464519981280318461358547211 
7 3 3 8 -0.024784164531150152527283481163067335728555917740 
7 3 4 7 0.026120720953778313322413140440403367392718791962 
7 3 4 8 -0.058037346623066837780768878474191296845674514771 
7 3 7 0 0.003524458711333334527682215053800973691977560520 
7 3 7 1 -0.053204854323906931867771419319979031570255756378 
7 3 7 2 -0.031771633991559453114028599429730093106627464294 
7 3 7 3 0.047003145625836205423464519981280318461358547211 
7 3 7 4 0.026120720953778313322413140440403367392718791962 
7 3 8 0 0.005308132646038745197647479301394923822954297066 
7 3 8 1 0.006348394946010016241799700509318427066318690777 
7 3 8 2 0.043852719822861437048988619835654390044510364532 
7 3 8 3 -0.024784164531150152527283481163067335728555917740 
7 3 8 4 -0.058037346623066837780768878474191296845674514771 
7 4 0 7 -0.006725054457250233611032008695929107489064335823 
7 4 0 8 -0.009810637884924212556714273603120091138407588005 
7 4 1 7 -0.010777216228003377515576310941014526179060339928 
7 4 1 8 0.041411287787286574224587809567310614511370658875 
7 4 2 7 -0.031410067599059815490747382682457100600004196167 
7 4 2 8 0.026120721056311465430033180723512487020343542099 
7 4 3 7 0.026120720953778323730753996301245933864265680313 
7 4 3 8 -0.039573140657961788924090740238170837983489036560 
7 4 4 7 0.047236801796616288695584984225206426344811916351 
7 4 4 8 -0.019073223744612975705248203439623466692864894867 
7 4 7 0 -0.006725054457250233611032008695929107489064335823 
7 4 7 1 -0.010777216228003377515576310941014526179060339928 
7 4 7 2 -0.031410067599059815490747382682457100600004196167 
7 4 7 3 0.026120720953778323730753996301245933864265680313 
7 4 7 4 0.047236801796616288695584984225206426344811916351 
7 4 8 0 -0.009810637884924212556714273603120091138407588005 
7 4 8 1 0.041411287787286574224587809567310614511370658875 
7 4 8 2 0.026120721056311465430033180723512487020343542099 
7 4 8 3 -0.039573140657961788924090740238170837983489036560 
7 4 8 4 -0.019073223744612975705248203439623466692864894867 
8 0 0 7 0.013371905243816040176341175538254901766777038574 
8 0 0 8 0.020623785586799218971787439613763126544654369354 
8 0 1 7 -0.018978256316828784333594626332342159003019332886 
8 0 1 8 -0.014279630434351351514488115412859770003706216812 
8 0 2 7 -0.004779457361558769878939756381441839039325714111 
8 0 2 8 0.005308132624172273023033241656776226591318845749 
8 0 3 7 0.005308132646038746932370955278202018234878778458 
8 0 3 8 0.001194415461380640827368515566320184007054194808 
8 0 4 7 -0.009810637884924210821990797626312996726483106613 
8 0 4 8 -0.020111514744994635900399160277629562187939882278 
8 0 7 0 0.013371905243816040176341175538254901766777038574 
8 0 7 1 -0.018978256316828784333594626332342159003019332886 
8 0 7 2 -0.004779457361558769878939756381441839039325714111 
8 0 7 3 0.005308132646038746932370955278202018234878778458 
8 0 7 4 -0.009810637884924210821990797626312996726483106613 
8 0 8 0 0.020623785586799218971787439613763126544654369354 
8 0 8 1 -0.014279630434351351514488115412859770003706216812 
8 0 8 2 0.005308132624172273023033241656776226591318845749 
8 0 8 3 0.001194415461380640827368515566320184007054194808 
8 0 8 4 -0.020111514744994635900399160277629562187939882278 
8 1 0 7 -0.009822187887984527507323484485368680907413363457 
8 1 0 8 -0.014279630434351346310317687482438486767932772636 
8 1 1 7 0.018805854205383897709280560661682102363556623459 
8 1 1 8 0.047728060027736537995757259977835929021239280701 
8 1 2 7 -0.020444807734553760436568836666992865502834320068 
8 1 2 8 0.006348395041783870366980391253264315309934318066 
8 1 3 7 0.006348394946010004098735368671668766182847321033 
8 1 3 8 -0.031432456343732310954930397883799741975963115692 
8 1 4 7 0.041411287787286567285693905660082236863672733307 
8 1 4 8 0.009114824239646353645771803542174893664196133614 
8 1 7 0 -0.009822187887984527507323484485368680907413363457 
8 1 7 1 0.018805854205383897709280560661682102363556623459 
8 1 7 2 -0.020444807734553760436568836666992865502834320068 
8 1 7 3 0.006348394946010004098735368671668766182847321033 
8 1 7 4 0.041411287787286567285693905660082236863672733307 
8 1 8 0 -0.014279630434351346310317687482438486767932772636 
8 1 8 1 0.047728060027736537995757259977835929021239280701 
8 1 8 2 0.006348395041783870366980391253264315309934318066 
8 1 8 3 -0.031432456343732310954930397883799741975963115692 
8 1 8 4 0.009114824239646353645771803542174893664196133614 
8 2 0 7 0.003524458696379254019070970116445096209645271301 
8 2 0 8 0.005308132624172273890394979645179773797281086445 
8 2 1 7 -0.053204854353691669044401635346730472519993782043 
8 2 1 8 0.006348395041783864295448225334439484868198633194 
8 2 2 7 -0.031771634067246500021663990764864138327538967133 
8 2 2 8 0.047003145752056205153301959853706648573279380798 
8 2 3 7 0.043852719822861437048988619835654390044510364532 
8 2 3 8 -0.024784164624471884813550204285093059297651052475 
8 2 4 7 0.026120721056311475838374036584355053491890430450 
8 2 4 8 -0.058037346671846262724514531328168231993913650513 
8 2 7 0 0.003524458696379254019070970116445096209645271301 
8 2 7 1 -0.053204854353691669044401635346730472519993782043 
8 2 7 2 -0.031771634067246500021663990764864138327538967133 
8 2 7 3 0.043852719822861437048988619835654390044510364532 
8 2 7 4 0.026120721056311475838374036584355053491890430450 
8 2 8 0 0.005308132624172273890394979645179773797281086445 
8 2 8 1 0.006348395041783864295448225334439484868198633194 
8 2 8 2 0.047003145752056205153301959853706648573279380798 
8 2 8 3 -0.024784164624471884813550204285093059297651052475 
8 2 8 4 -0.058037346671846262724514531328168231993913650513 
8 3 0 7 0.000375760549981413540833463660106872339383699000 
8 3 0 8 0.001194415461380642128411122548925504815997555852 
8 3 1 7 0.033638653993255218654923055510153062641620635986 
8 3 1 8 -0.031432456343732310954930397883799741975963115692 
8 3 2 7 0.047978550702514208281534990874206414446234703064 
8 3 2 8 -0.024784164624471863996868492563407926354557275772 
8 3 3 7 -0.024784164531150152527283481163067335728555917740 
8 3 3 8 0.051763774687269635543795942567157908342778682709 
8 3 4 7 -0.039573140657961781985196836330942460335791110992 
8 3 4 8 0.039533521551592266940478026526761823333799839020 
8 3 7 0 0.000375760549981413540833463660106872339383699000 
8 3 7 1 0.033638653993255218654923055510153062641620635986 
8 3 7 2 0.047978550702514208281534990874206414446234703064 
8 3 7 3 -0.024784164531150152527283481163067335728555917740 
8 3 7 4 -0.039573140657961781985196836330942460335791110992 
8 3 8 0 0.001194415461380642128411122548925504815997555852 
8 3 8 1 -0.031432456343732310954930397883799741975963115692 
8 3 8 2 -0.024784164624471863996868492563407926354557275772 
8 3 8 3 0.051763774687269635543795942567157908342778682709 
8 3 8 4 0.039533521551592266940478026526761823333799839020 
8 4 0 7 -0.013984966591701352561782911720911215525120496750 
8 4 0 8 -0.020111514744994635900399160277629562187939882278 
8 4 1 7 0.096308702213461550023509971651947125792503356934 
8 4 1 8 0.009114824239646386605517847101509687490761280060 
8 4 2 7 0.056564955071464848024298532891407376155257225037 
8 4 2 8 -0.058037346671846255785620627420939854346215724945 
8 4 3 7 -0.058037346623066851658556686288648052141070365906 
8 4 3 8 0.039533521551592260001584122619533445686101913452 
8 4 4 7 -0.019073223744612975705248203439623466692864894867 
8 4 4 8 0.101743401398077235042727295422082534059882164001 
8 4 7 0 -0.013984966591701352561782911720911215525120496750 
8 4 7 1 0.096308702213461550023509971651947125792503356934 
8 4 7 2 0.056564955071464848024298532891407376155257225037 
8 4 7 3 -0.058037346623066851658556686288648052141070365906 
8 4 7 4 -0.019073223744612975705248203439623466692864894867 
8 4 8 0 -0.020111514744994635900399160277629562187939882278 
8 4 8 1 0.009114824239646386605517847101509687490761280060 
8 4 8 2 -0.058037346671846255785620627420939854346215724945 
8 4 8 3 0.039533521551592260001584122619533445686101913452 
8 4 8 4 0.101743401398077235042727295422082534059882164001 
****  HF Energy = -39.725912034751765133933076867833733558654785156250 
****  Molecular Integrals For CheMPS End Here 

*** PSI4 exiting successfully. Buy a developer a beer!
