 &FCI NORB= 13,NELEC= 10,MS2= 0,
  ORBSYM=1,1,1,1,1,1,1,2,2,2,2,3,3,
  ISYM=1,
 /
  4.7399934427348374E+00   1   1   1   1
  4.2974230976637062E-01   2   1   1   1
  6.3597487420653812E-02   2   1   2   1
  1.0422460607917072E+00   2   2   1   1
  1.3736520873317766E-02   2   2   2   1
  7.4913997729753834E-01   2   2   2   2
  1.4700508336662252E-01   3   1   1   1
  1.7351065952174994E-02   3   1   2   1
  1.5323349387098522E-02   3   1   2   2
  2.9715686525800335E-02   3   1   3   1
  9.5174043637585595E-02   3   2   1   1
  8.3288306435155609E-03   3   2   2   1
 -1.3304594719659321E-02   3   2   2   2
 -2.1360908938006812E-02   3   2   3   1
  1.1765541134387410E-01   3   2   3   2
  9.6889971268601638E-01   3   3   1   1
  1.3144096575811929E-02   3   3   2   1
  6.6356619306957998E-01   3   3   2   2
 -1.0958909351637099E-02   3   3   3   1
  8.1801096057902201E-02   3   3   3   2
  7.1973323970781000E-01   3   3   3   3
  1.4899569402362436E-01   4   1   1   1
  2.4004807447711145E-02   4   1   2   1
  6.5679015919812124E-04   4   1   2   2
 -2.3214234697202163E-03   4   1   3   1
  1.1287177110320203E-02   4   1   3   2
  9.4836170136054620E-03   4   1   3   3
  1.2220657515412781E-02   4   1   4   1
  2.2337981390528230E-01   4   2   1   1
  4.2444252219290312E-03   4   2   2   1
  1.1687464172179582E-01   4   2   2   2
  1.1881190495850697E-02   4   2   3   1
 -2.0372568010564050E-02   4   2   3   2
  7.2065029339515418E-02   4   2   3   3
 -2.3174307551755112E-03   4   2   4   1
  4.7245838229898612E-02   4   2   4   2
 -1.5138242925060497E-01   4   3   1   1
 -1.4340423735275506E-03   4   3   2   1
 -7.6652275364837055E-02   4   3   2   2
 -2.6025473048461537E-03   4   3   3   1
 -1.4552636101835742E-02   4   3   3   2
 -8.1858064545364914E-02   4   3   3   3
  3.8678064014932914E-04   4   3   4   1
 -2.7836358396721987E-02   4   3   4   2
  3.2011845085063578E-02   4   3   4   3
  4.6433798112855595E-01   4   4   1   1
  2.1811577194217713E-03   4   4   2   1
  4.0617901372786136E-01   4   4   2   2
  8.3252913729391434E-03   4   4   3   1
 -3.5384104289166114E-02   4   4   3   2
  3.6761848799307245E-01   4   4   3   3
 -2.0046046921758168E-03   4   4   4   1
  2.6587255142044741E-02   4   4   4   2
 -4.3999900127182634E-03   4   4   4   3
  3.4098850141154780E-01   4   4   4   4
  1.4039646996341723E-01   5   1   1   1
  2.4259367393448021E-02   5   1   2   1
 -2.6700001612935211E-03   5   1   2   2
 -1.1065944870487024E-02   5   1   3   1
  1.8310064228645416E-02   5   1   3   2
  1.4055568561027866E-02   5   1   3   3
  1.5447260485389910E-02   5   1   4   1
 -5.6165594874595295E-03   5   1   4   2
  1.0907705930511460E-03   5   1   4   3
 -4.2968189242536996E-03   5   1   4   4
  2.1828158139369870E-02   5   1   5   1
  1.8159498717305758E-01   5   2   1   1
  4.2793791146528122E-03   5   2   2   1
  6.5091843943879110E-02   5   2   2   2
  1.3269565771548289E-02   5   2   3   1
 -6.8764708982622831E-03   5   2   3   2
  3.3318969485916380E-02   5   2   3   3
 -2.8372117434478719E-03   5   2   4   1
  4.1648021477716485E-02   5   2   4   2
 -2.7272287028025369E-02   5   2   4   3
  9.1008811461803854E-03   5   2   4   4
 -6.7587890938291244E-03   5   2   5   1
  5.9822594996918860E-02   5   2   5   2
 -2.0124541766290413E-01   5   3   1   1
 -5.0505211622116596E-03   5   3   2   1
 -5.9204876953427660E-02   5   3   2   2
 -1.3809664167643123E-03   5   3   3   1
 -2.5578910783334775E-02   5   3   3   2
 -7.4435842680175848E-02   5   3   3   3
 -1.6385978819298957E-03   5   3   4   1
 -2.9367158548903500E-02   5   3   4   2
  2.9846767093292349E-02   5   3   4   3
 -4.6496397568703968E-03   5   3   4   4
 -1.5160398095983175E-03   5   3   5   1
 -4.3815502076432616E-02   5   3   5   2
  5.1620782309745990E-02   5   3   5   3
  2.2676742303318043E-01   5   4   1   1
  3.4882441092884877E-03   5   4   2   1
  1.3603717239725457E-01   5   4   2   2
  8.4560713142837248E-03   5   4   3   1
 -1.9266605582575862E-02   5   4   3   2
  1.0641667088377356E-01   5   4   3   3
 -1.4944173231112579E-03   5   4   4   1
  3.2693962020737585E-02   5   4   4   2
 -1.9985794961159507E-02   5   4   4   3
  4.7539519084638160E-02   5   4   4   4
 -3.7795796267724793E-03   5   4   5   1
  1.2952881354548654E-02   5   4   5   2
 -8.5036009200741731E-03   5   4   5   3
  5.0516160501162387E-02   5   4   5   4
  6.8718598397920017E-01   5   5   1   1
  4.8280815253289398E-03   5   5   2   1
  5.7333138524064398E-01   5   5   2   2
  1.4352503944220961E-02   5   5   3   1
 -7.0490310872903736E-02   5   5   3   2
  4.9805705685779839E-01   5   5   3   3
 -2.9995447245566298E-03   5   5   4   1
  5.2873818153867935E-02   5   5   4   2
 -1.8141085202610568E-02   5   5   4   3
  3.9438183266374177E-01   5   5   4   4
 -6.7017192606710976E-03   5   5   5   1
 -1.7441199111808137E-02   5   5   5   2
  2.1342105358269220E-02   5   5   5   3
  1.1743975521007471E-01   5   5   5   4
  6.0833209678592903E-01   5   5   5   5
  1.5877702392166432E-01   6   1   1   1
  1.8248126266056611E-02   6   1   2   1
  1.6452082086977581E-02   6   1   2   2
  3.5437351510309335E-02   6   1   3   1
 -2.3604604014995804E-02   6   1   3   2
 -1.2560965512864189E-02   6   1   3   3
 -3.9387551905173696E-03   6   1   4   1
  1.3032193537287445E-02   6   1   4   2
 -2.9070835161429179E-03   6   1   4   3
  9.0917729986639481E-03   6   1   4   4
 -1.4673481612061993E-02   6   1   5   1
  1.4787501338977349E-02   6   1   5   2
 -1.4530865054221374E-03   6   1   5   3
  9.2981297603897915E-03   6   1   5   4
  1.5591706814121127E-02   6   1   5   5
  4.2543327351219365E-02   6   1   6   1
  9.1530250690710024E-02   6   2   1   1
  6.4964811468948645E-03   6   2   2   1
  2.0359685137836134E-02   6   2   2   2
 -1.1354158385919785E-02   6   2   3   1
  3.1909044390937447E-02   6   2   3   2
  4.5996312855216867E-02   6   2   3   3
  6.9748849586866663E-03   6   2   4   1
 -2.1383145989455881E-03   6   2   4   2
  7.3290621195448366E-04   6   2   4   3
  1.8891692703680565E-03   6   2   4   4
  1.1050869503837270E-02   6   2   5   1
 -2.0446854457480072E-03   6   2   5   2
 -1.2746542971600024E-02   6   2   5   3
 -3.7749011405804507E-03   6   2   5   4
 -6.6627282857087923E-03   6   2   5   5
 -1.3034155572824590E-02   6   2   6   1
  3.0132818299637144E-02   6   2   6   2
  4.2834414609605231E-01   6   3   1   1
  1.4172384887226283E-02   6   3   2   1
  1.5476872519073634E-01   6   3   2   2
 -6.0396156961214937E-03   6   3   3   1
  3.4897886605545644E-02   6   3   3   2
  1.6569696086776128E-01   6   3   3   3
  8.3841397597708214E-03   6   3   4   1
  3.8881136266730523E-02   6   3   4   2
 -2.9734566013379690E-02   6   3   4   3
  3.9666521115239280E-02   6   3   4   4
  1.1497259906076484E-02   6   3   5   1
  2.0695632599043792E-02   6   3   5   2
 -4.5832581804578214E-02   6   3   5   3
  4.4727812904018512E-02   6   3   5   4
  9.2293207583718270E-02   6   3   5   5
 -7.4229641221234969E-03   6   3   6   1
  3.3316946635231277E-02   6   3   6   2
  1.2702706421141496E-01   6   3   6   3
 -9.0674372359227165E-02   6   4   1   1
 -1.6327112907841912E-03   6   4   2   1
 -3.6728359015514321E-02   6   4   2   2
 -4.7239590985517750E-03   6   4   3   1
  2.1257259863324975E-02   6   4   3   2
 -1.9385260516020221E-02   6   4   3   3
  9.9628576463787512E-04   6   4   4   1
 -1.5369729108550508E-02   6   4   4   2
  8.0197291306530888E-04   6   4   4   3
 -2.2515808456222343E-02   6   4   4   4
  2.2946424266437546E-03   6   4   5   1
 -1.3850019949470840E-02   6   4   5   2
  1.3567432003411420E-02   6   4   5   3
 -9.4889471489235516E-03   6   4   5   4
 -2.8607232466796237E-02   6   4   5   5
 -5.1299664172085070E-03   6   4   6   1
 -6.1293423223103887E-03   6   4   6   2
 -2.4430517196738426E-02   6   4   6   3
  2.1862887686662384E-02   6   4   6   4
 -2.0643545554117884E-01   6   5   1   1
 -6.5036105933151843E-03   6   5   2   1
 -5.5963989550936052E-02   6   5   2   2
 -1.0052856366443337E-03   6   5   3   1
 -2.7609626641914534E-02   6   5   3   2
 -7.4004354318623275E-02   6   5   3   3
 -2.4432843755892858E-03   6   5   4   1
 -2.4059035821272660E-02   6   5   4   2
  2.8705714281524707E-02   6   5   4   3
 -1.3941426779117694E-03   6   5   4   4
 -2.5837365578385944E-03   6   5   5   1
 -3.3416872023331448E-02   6   5   5   2
  4.0695831951809570E-02   6   5   5   3
 -1.2523154027232378E-02   6   5   5   4
  1.1261354709030186E-02   6   5   5   5
 -1.0290889835004647E-03   6   5   6   1
 -8.4711140581896580E-03   6   5   6   2
 -4.2107337588586577E-02   6   5   6   3
  5.8403827247158740E-03   6   5   6   4
  3.9768741138023624E-02   6   5   6   5
  8.8646700177426097E-01   6   6   1   1
  1.7324252983785079E-02   6   6   2   1
  5.6137881923033195E-01   6   6   2   2
 -8.5807136149564679E-03   6   6   3   1
  7.4426846362376689E-02   6   6   3   2
  6.1479086870472111E-01   6   6   3   3
  1.0594507865605035E-02   6   6   4   1
  5.3097489131021525E-02   6   6   4   2
 -6.9022332210972523E-02   6   6   4   3
  3.3277087506141734E-01   6   6   4   4
  1.4805145482335968E-02   6   6   5   1
  3.0935127498262771E-02   6   6   5   2
 -6.1524952887125742E-02   6   6   5   3
  8.0313783278999074E-02   6   6   5   4
  4.2833575944115004E-01   6   6   5   5
 -1.0080220802862036E-02   6   6   6   1
  3.2100838750126523E-02   6   6   6   2
  1.1763730707460077E-01   6   6   6   3
 -6.3956899279851848E-03   6   6   6   4
 -6.6887281054579695E-02   6   6   6   5
  5.6964176430793390E-01   6   6   6   6
  3.5517931416911408E-01   7   1   1   1
  5.3429827183618481E-02   7   1   2   1
  9.3539072795232620E-03   7   1   2   2
  1.0830086666757249E-02   7   1   3   1
  9.1935092303298202E-03   7   1   3   2
  1.1741566698840980E-02   7   1   3   3
  2.1479029003162182E-02   7   1   4   1
  1.9962442517730914E-03   7   1   4   2
 -7.2960510955805136E-04   7   1   4   3
  7.7129872931916085E-04   7   1   4   4
  2.3094062346156050E-02   7   1   5   1
  1.7723269888691396E-03   7   1   5   2
 -3.7449345098378188E-03   7   1   5   3
  1.7808633142522615E-03   7   1   5   4
  2.3019042277413952E-03   7   1   5   5
  1.0750084858469726E-02   7   1   6   1
  6.7058281965863831E-03   7   1   6   2
  1.2108682774825507E-02   7   1   6   3
 -7.0140409220744012E-04   7   1   6   4
 -5.0736551555204444E-03   7   1   6   5
  1.5163596986928688E-02   7   1   6   6
  4.5770978023842085E-02   7   1   7   1
  3.4414809548968778E-01   7   2   1   1
  1.2598256508719078E-02   7   2   2   1
  1.1373298059602564E-01   7   2   2   2
  9.1721761936478900E-03   7   2   3   1
  1.0071015517743725E-02   7   2   3   2
  9.6029683088996537E-02   7   2   3   3
  2.4401006727539781E-03   7   2   4   1
  4.0402722961767418E-02   7   2   4   2
 -2.6366772514657306E-02   7   2   4   3
  2.9382011228122732E-02   7   2   4   4
  5.4020086679388429E-04   7   2   5   1
  3.1346910437907695E-02   7   2   5   2
 -3.2996273424966409E-02   7   2   5   3
  3.8089344726805509E-02   7   2   5   4
  6.4696411087468417E-02   7   2   5   5
  1.0005924597999708E-02   7   2   6   1
  4.5296559506698792E-03   7   2   6   2
  7.1957805386924339E-02   7   2   6   3
 -1.4525735634488101E-02   7   2   6   4
 -3.2033900969774591E-02   7   2   6   5
  7.5154416155317691E-02   7   2   6   6
  8.9071731539971735E-03   7   2   7   1
  7.2797529050743937E-02   7   2   7   2
  4.7993711341755042E-02   7   3   1   1
  3.9160509519868625E-03   7   3   2   1
  1.8880193573329394E-02   7   3   2   2
 -9.3277118398243288E-03   7   3   3   1
  1.2055244748612574E-02   7   3   3   2
  3.2704163714280816E-02   7   3   3   3
  5.1077686468799805E-03   7   3   4   1
 -2.0774100336292990E-03   7   3   4   2
  2.7982123663227352E-03   7   3   4   3
  3.8160336778035493E-03   7   3   4   4
  8.4368219058000848E-03   7   3   5   1
 -6.1694890778673222E-03   7   3   5   2
 -5.1524237375633400E-03   7   3   5   3
 -2.7259116675582709E-03   7   3   5   4
  3.1908310198929817E-03   7   3   5   5
 -1.0808914323670439E-02   7   3   6   1
  2.4683886510976964E-02   7   3   6   2
  2.0602880659926732E-02   7   3   6   3
 -6.4260376411394444E-03   7   3   6   4
 -1.2798971086658692E-03   7   3   6   5
  2.2131652036508159E-02   7   3   6   6
  4.4016199698136407E-03   7   3   7   1
 -4.1440545839730239E-03   7   3   7   2
  2.5750308018260878E-02   7   3   7   3
  1.9472067930670822E-01   7   4   1   1
  4.5484887280643916E-03   7   4   2   1
  9.4383079082088941E-02   7   4   2   2
  8.0728720134761699E-03   7   4   3   1
 -6.4395140410475598E-04   7   4   3   2
  7.5504636120311386E-02   7   4   3   3
 -8.6099219730467053E-04   7   4   4   1
  3.0345378958519673E-02   7   4   4   2
 -2.4054700655375905E-02   7   4   4   3
  1.8379200847457016E-02   7   4   4   4
 -3.0174807435922862E-03   7   4   5   1
  2.8698178742159738E-02   7   4   5   2
 -2.3245536415036336E-02   7   4   5   3
  2.4443189945471060E-02   7   4   5   4
  4.2051461994701549E-02   7   4   5   5
  9.0153224951366219E-03   7   4   6   1
 -9.2423369816160676E-04   7   4   6   2
  2.6779298319980983E-02   7   4   6   3
 -8.2480948149194922E-03   7   4   6   4
 -2.1728324633215629E-02   7   4   6   5
  6.6038598865825152E-02   7   4   6   6
  2.6415205070594357E-03   7   4   7   1
  2.8279284061142235E-02   7   4   7   2
 -1.2337457587064439E-03   7   4   7   3
  3.0952391529503662E-02   7   4   7   4
  1.5594454396804186E-01   7   5   1   1
  4.6662247535896664E-03   7   5   2   1
  4.7079990346053403E-02   7   5   2   2
  1.1575433837927524E-02   7   5   3   1
 -9.7878623094270235E-03   7   5   3   2
  2.3751360846920797E-02   7   5   3   3
 -2.0205165729796255E-03   7   5   4   1
  2.9002938254734531E-02   7   5   4   2
 -1.7787522232723063E-02   7   5   4   3
  9.6593876411647621E-03   7   5   4   4
 -5.3429718475387867E-03   7   5   5   1
  3.4747771082370274E-02   7   5   5   2
 -2.7173973135274671E-02   7   5   5   3
  1.2677183931133110E-02   7   5   5   4
  4.5969512833999790E-04   7   5   5   5
  1.2961980301755025E-02   7   5   6   1
 -4.7255465043103866E-03   7   5   6   2
  2.1664871817194585E-02   7   5   6   3
 -1.1955651172863367E-02   7   5   6   4
 -2.3606176103112261E-02   7   5   6   5
  1.8462967783600764E-02   7   5   6   6
  2.2904893935881097E-03   7   5   7   1
  3.2138258319649553E-02   7   5   7   2
 -6.3676357491853170E-03   7   5   7   3
  1.9397081326430921E-02   7   5   7   4
  3.0961900987860620E-02   7   5   7   5
  4.7421014201849992E-02   7   6   1   1
  4.7419059554861896E-03   7   6   2   1
 -8.4663443549155056E-03   7   6   2   2
 -1.3960721312859433E-02   7   6   3   1
  6.8133418681888533E-02   7   6   3   2
  4.3715598616635098E-02   7   6   3   3
  7.0995232533746181E-03   7   6   4   1
 -1.1124250547972361E-02   7   6   4   2
 -1.1084474331862854E-02   7   6   4   3
 -2.3426701868896158E-02   7   6   4   4
  1.1742747493374539E-02   7   6   5   1
 -6.6208270939441555E-03   7   6   5   2
 -1.1207767206417280E-02   7   6   5   3
 -1.0048472611835817E-02   7   6   5   4
 -4.1136560077078235E-02   7   6   5   5
 -1.5653018704255364E-02   7   6   6   1
  1.3101428486445845E-02   7   6   6   2
  1.9185365064456224E-02   7   6   6   3
  1.8343816156813943E-02   7   6   6   4
 -1.6911312257246690E-02   7   6   6   5
  4.2944648578766419E-02   7   6   6   6
  5.4781790131535656E-03   7   6   7   1
  8.8761448537367747E-03   7   6   7   2
  1.6106284234201629E-03   7   6   7   3
 -1.6220252073362602E-03   7   6   7   4
 -5.0664464444018752E-03   7   6   7   5
  4.8558737023182676E-02   7   6   7   6
  8.0338543048950162E-01   7   7   1   1
  1.0441047854214843E-02   7   7   2   1
  5.9561489668735867E-01   7   7   2   2
  1.2478734723774951E-02   7   7   3   1
 -2.0356018712184697E-02   7   7   3   2
  5.3399396633208263E-01   7   7   3   3
  1.6220935989280649E-04   7   7   4   1
  7.4430964065390848E-02   7   7   4   2
 -4.4780688692304005E-02   7   7   4   3
  3.7127836990185870E-01   7   7   4   4
 -2.6773402693840639E-03   7   7   5   1
  4.6166024698291619E-02   7   7   5   2
 -3.7697618523781035E-02   7   7   5   3
  9.2560615638550614E-02   7   7   5   4
  4.8397534920230861E-01   7   7   5   5
  1.3527233583399400E-02   7   7   6   1
  1.8237582434296067E-02   7   7   6   2
  9.3909253998293016E-02   7   7   6   3
 -3.0873641895394266E-02   7   7   6   4
 -3.2956170165496054E-02   7   7   6   5
  4.7116308763887366E-01   7   7   6   6
  7.0522231931937560E-03   7   7   7   1
  5.7458145920819492E-02   7   7   7   2
  1.9697149797077568E-02   7   7   7   3
  6.6424328123382365E-02   7   7   7   4
  2.3368071070720781E-02   7   7   7   5
 -2.1739183761335840E-02   7   7   7   6
  5.2474115491422768E-01   7   7   7   7
  8.5239297862408658E-01   8   8   1   1
  6.3800400508417848E-03   8   8   2   1
  6.5862992601506820E-01   8   8   2   2
  5.8011921248116265E-03   8   8   3   1
 -6.2899332935908714E-03   8   8   3   2
  5.8882406168366708E-01   8   8   3   3
  6.6062684369551372E-04   8   8   4   1
  7.4382620086007822E-02   8   8   4   2
 -4.6161297862211764E-02   8   8   4   3
  3.9035133456735982E-01   8   8   4   4
 -1.6877480738358708E-04   8   8   5   1
  1.4540220756299349E-02   8   8   5   2
 -1.8368394936178534E-02   8   8   5   3
  1.1521036801218593E-01   8   8   5   4
  5.5945809826975368E-01   8   8   5   5
  6.0590092319875331E-03   8   8   6   1
  1.3946910093450893E-02   8   8   6   2
  1.2535650969519999E-01   8   8   6   3
 -2.0998051575500047E-02   8   8   6   4
 -2.5560029043666204E-02   8   8   6   5
  5.0632575546378433E-01   8   8   6   6
  4.3096470635919926E-03   8   8   7   1
  8.9288125102224725E-02   8   8   7   2
  1.5004301169375289E-02   8   8   7   3
  6.7228252333363603E-02   8   8   7   4
  2.1191004062952830E-02   8   8   7   5
 -3.7024060388000067E-04   8   8   7   6
  5.3076836534816740E-01   8   8   7   7
  6.3622582948158068E-01   8   8   8   8
  2.8764520638313568E-01   9   8   1   1
  5.2978761708600466E-03   9   8   2   1
  1.3631284969774132E-01   9   8   2   2
 -1.7085739617820651E-04   9   8   3   1
  3.9322648566694263E-02   9   8   3   2
  1.3063162892815136E-01   9   8   3   3
  2.3296328880208911E-03   9   8   4   1
  4.0040231639946078E-02   9   8   4   2
 -3.8275653541583070E-02   9   8   4   3
  1.1285853878748003E-02   9   8   4   4
  2.8601729436477617E-03   9   8   5   1
  3.4708045474995015E-02   9   8   5   2
 -3.9662718047552989E-02   9   8   5   3
  2.6991914923234012E-02   9   8   5   4
  3.3937153641456282E-02   9   8   5   5
 -2.6008346986914390E-04   9   8   6   1
  1.3303363380720900E-02   9   8   6   2
  5.7917601220180887E-02   9   8   6   3
 -3.5933779261867922E-03   9   8   6   4
 -3.7272896567774397E-02   9   8   6   5
  1.0805583457430779E-01   9   8   6   6
  4.0882369106428548E-03   9   8   7   1
  4.7574885606728123E-02   9   8   7   2
  6.2140679996033794E-03   9   8   7   3
  3.7461809046834424E-02   9   8   7   4
  2.4037579983335174E-02   9   8   7   5
  2.4193226789486089E-02   9   8   7   6
  8.1842464264411177E-02   9   8   7   7
  1.0871578001851005E-01   9   8   8   8
  7.7004995397651724E-02   9   8   9   8
  4.9255688658388136E-01   9   9   1   1
  3.2716779404662727E-03   9   9   2   1
  4.0842826919329683E-01   9   9   2   2
  1.8253809320469411E-03   9   9   3   1
 -7.8417647585150088E-03   9   9   3   2
  3.8416767244699529E-01   9   9   3   3
  7.7486751906380436E-04   9   9   4   1
  2.0635402521725910E-02   9   9   4   2
 -2.8836269700597827E-03   9   9   4   3
  3.3688320265303462E-01   9   9   4   4
  5.9598236888840084E-04   9   9   5   1
  5.3196615250561408E-04   9   9   5   2
 -4.1789746966664626E-03   9   9   5   3
  4.5125932210435482E-02   9   9   5   4
  3.8715198783285287E-01   9   9   5   5
  1.8579113163041034E-03   9   9   6   1
  1.1418448260966680E-02   9   9   6   2
  5.3674900945519161E-02   9   9   6   3
 -1.6838019555253349E-02   9   9   6   4
 -4.0359117491115416E-03   9   9   6   5
  3.4319980822076496E-01   9   9   6   6
  2.3363673562134951E-03   9   9   7   1
  3.6237052943116077E-02   9   9   7   2
  7.9866232904258760E-03   9   9   7   3
  1.3530662583908171E-02   9   9   7   4
  6.4809966710422818E-03   9   9   7   5
 -6.3593776187376924E-03   9   9   7   6
  3.6767136657260746E-01   9   9   7   7
  4.0713425429559302E-01   9   9   8   8
  2.3623036013740217E-02   9   9   9   8
  3.4996598661403733E-01   9   9   9   9
  8.2573159502140503E-02  10   8   1   1
  3.4602783354658754E-03  10   8   2   1
 -9.3162207676007851E-03  10   8   2   2
 -4.7669753129860794E-03  10   8   3   1
  6.3328599064765553E-02  10   8   3   2
  2.2388961690375027E-02  10   8   3   3
  3.1552038064480035E-03  10   8   4   1
  7.5000171410562408E-03  10   8   4   2
 -2.1817797704491992E-02  10   8   4   3
 -2.9344072917028154E-02  10   8   4   4
  4.6910230677591914E-03  10   8   5   1
  3.8629706047229651E-02  10   8   5   2
 -4.4357140168721103E-02  10   8   5   3
 -2.1107286358296888E-02  10   8   5   4
 -1.0455697801337734E-01  10   8   5   5
 -5.1155500329286754E-03  10   8   6   1
  1.3576541641093468E-02  10   8   6   2
  1.2174728144809448E-02  10   8   6   3
  7.5461631795497724E-03  10   8   6   4
 -3.7308224940244883E-02  10   8   6   5
  3.0263983489901086E-02  10   8   6   6
  3.1650903390253145E-03  10   8   7   1
  1.1074304312161973E-02  10   8   7   2
  1.3663992653520154E-03  10   8   7   3
  1.3380888232844980E-02  10   8   7   4
  1.8493367712834892E-02  10   8   7   5
  3.6102534868145686E-02  10   8   7   6
 -1.0594714410154688E-02  10   8   7   7
 -2.7813449651323228E-02  10   8   8   8
  4.1415257483052831E-02  10   8   9   8
 -1.7820067540162243E-02  10   8   9   9
  8.1243125051396498E-02  10   8  10   8
  1.4269836176657141E-01  10   9   1   1
  1.8606872493555147E-03  10   9   2   1
  9.5349657960600728E-02  10   9   2   2
 -7.1831591200761219E-04  10   9   3   1
  9.2438484296762397E-03  10   9   3   2
  9.4260703686991854E-02  10   9   3   3
  1.0338264464328402E-03  10   9   4   1
  1.2775290470263115E-02  10   9   4   2
 -1.2101036436509657E-02  10   9   4   3
  2.8244505012531382E-02  10   9   4   4
  1.4637525279229489E-03  10   9   5   1
 -2.6771926638894383E-03  10   9   5   2
 -5.9183781889493147E-04  10   9   5   3
  3.0669507520499194E-02  10   9   5   4
  7.9889522569696308E-02  10   9   5   5
 -8.2427176847817227E-04  10   9   6   1
  4.5657773529530167E-03  10   9   6   2
  2.7595823704438586E-02  10   9   6   3
 -1.8254357829664293E-04  10   9   6   4
 -6.1067638261277524E-03  10   9   6   5
  7.5638075057971016E-02  10   9   6   6
  1.5495610517442474E-03  10   9   7   1
  1.9473451348817603E-02  10   9   7   2
  3.4128654553983772E-03  10   9   7   3
  1.5990582890443195E-02  10   9   7   4
 -1.1071878397782061E-03  10   9   7   5
  5.7257803653213866E-03  10   9   7   6
  6.6115059204099491E-02  10   9   7   7
  9.1726344324632988E-02  10   9   8   8
  2.6814308126906480E-02  10   9   9   8
  3.2859089689243150E-02  10   9   9   9
 -9.0287523911563722E-03  10   9  10   8
  3.0998063002869239E-02  10   9  10   9
  4.9673184283482302E-01  10  10   1   1
  2.1110056825967590E-04  10  10   2   1
  4.9038522071490337E-01  10  10   2   2
  2.8162799361613981E-03  10  10   3   1
 -3.6381362126197581E-02  10  10   3   2
  4.5050090121997288E-01  10  10   3   3
 -9.3479302831565858E-04  10  10   4   1
  2.0723968013624083E-02  10  10   4   2
 -7.2404395738542016E-03  10  10   4   3
  3.5854634044487405E-01  10  10   4   4
 -1.4404396494454158E-03  10  10   5   1
 -4.1182011373513516E-02  10  10   5   2
  3.9252336197544174E-02  10  10   5   3
  8.5496953925390140E-02  10  10   5   4
  5.3675989872944185E-01  10  10   5   5
  2.9317304694427586E-03  10  10   6   1
 -5.4230952778912952E-03  10  10   6   2
  5.3589661966578203E-02  10  10   6   3
 -5.0291506777103874E-03  10  10   6   4
  2.2026288966744648E-02  10  10   6   5
  3.9650588422270189E-01  10  10   6   6
 -4.1716284436554840E-05  10  10   7   1
  3.0483062677425343E-02  10  10   7   2
  3.2877716949236968E-03  10  10   7   3
  2.4200313618173735E-02  10  10   7   4
 -1.9623723525839937E-02  10  10   7   5
 -1.7048900550990214E-02  10  10   7   6
  4.2473355339880148E-01  10  10   7   7
  5.0523167032532523E-01  10  10   8   8
  2.2460849605565714E-02  10  10   9   8
  3.6145730632602979E-01  10  10   9   9
 -8.5486215371722213E-02  10  10  10   8
  7.0900735873862530E-02  10  10  10   9
  5.0947072289675777E-01  10  10  10  10
  3.9362996102399511E-01  11   8   1   1
  1.1323870194849157E-02  11   8   2   1
  1.3261054528562563E-01  11   8   2   2
  4.3740054545274316E-03  11   8   3   1
  1.8747807297372486E-02  11   8   3   2
  1.1504911874123105E-01  11   8   3   3
  3.4224851838627265E-03  11   8   4   1
  4.8501204864562636E-02  11   8   4   2
 -2.9214028772903113E-02  11   8   4   3
  2.7614729789703397E-02  11   8   4   4
  3.0569995482563166E-03  11   8   5   1
  4.4736079718384961E-02  11   8   5   2
 -4.6999282416241517E-02  11   8   5   3
  3.1751851899946122E-02  11   8   5   4
  4.3927288013304519E-02  11   8   5   5
  4.5015565862490661E-03  11   8   6   1
  2.2033102288970256E-02  11   8   6   2
  7.9512964622498822E-02  11   8   6   3
 -2.2449640621069300E-02  11   8   6   4
 -4.0198462125986191E-02  11   8   6   5
  9.0229040410393008E-02  11   8   6   6
  8.3815209055548776E-03  11   8   7   1
  7.0007577758857215E-02  11   8   7   2
  1.1880351193114775E-02  11   8   7   3
  3.2929836100609615E-02  11   8   7   4
  3.4576174303449558E-02  11   8   7   5
  7.7523167809194320E-03  11   8   7   6
  8.2830461549286694E-02  11   8   7   7
  9.7385230458954003E-02  11   8   8   8
  6.6293742799705221E-02  11   8   9   8
  4.0865031789100878E-02  11   8   9   9
  2.8310295076187465E-02  11   8  10   8
  1.9985390356977738E-02  11   8  10   9
  8.3233280004210691E-03  11   8  10  10
  1.0284937223979769E-01  11   8  11   8
  3.1909211564881718E-01  11   9   1   1
  7.8889886471250718E-03  11   9   2   1
  1.4117574193750751E-01  11   9   2   2
  2.8916766038180461E-03  11   9   3   1
  1.0697565907761289E-02  11   9   3   2
  1.2110953933722116E-01  11   9   3   3
  2.4197557414190399E-03  11   9   4   1
  3.6412426797266237E-02  11   9   4   2
 -2.5157329072844632E-02  11   9   4   3
  3.3790229412621123E-02  11   9   4   4
  2.2912845385581887E-03  11   9   5   1
  2.3103770956278281E-02  11   9   5   2
 -2.4996666422640732E-02  11   9   5   3
  3.9457977281321541E-02  11   9   5   4
  8.1440330717996529E-02  11   9   5   5
  2.9382936636233757E-03  11   9   6   1
  1.2935989757624488E-02  11   9   6   2
  6.3381059718421423E-02  11   9   6   3
 -1.1029210725963258E-02  11   9   6   4
 -2.5438186164894485E-02  11   9   6   5
  9.7779800995797056E-02  11   9   6   6
  5.9136246219883282E-03  11   9   7   1
  4.9771229077279079E-02  11   9   7   2
  9.4519144076221379E-03  11   9   7   3
  3.2475637831434610E-02  11   9   7   4
  1.8634930051391295E-02  11   9   7   5
  5.6851267983457233E-03  11   9   7   6
  9.4230856024542425E-02  11   9   7   7
  1.2163642654477566E-01  11   9   8   8
  5.4407199410283096E-02  11   9   9   8
  4.0615846635717323E-02  11   9   9   9
  9.3930928676651919E-03  11   9  10   8
  2.9128458450691095E-02  11   9  10   9
  5.5638353645661484E-02  11   9  10  10
  6.4570125716809951E-02  11   9  11   8
  6.0008882698731864E-02  11   9  11   9
  1.1784244501557600E-01  11  10   1   1
  3.5028186358338894E-03  11  10   2   1
  4.7650073313369123E-02  11  10   2   2
  2.3311333828244293E-03  11  10   3   1
 -1.8927565413811021E-02  11  10   3   2
  2.7318477555209879E-02  11  10   3   3
  7.4376719369828245E-04  11  10   4   1
  1.3142782329083856E-02  11  10   4   2
  4.0783001686289164E-03  11  10   4   3
  2.4268860327847485E-02  11  10   4   4
  4.0554499514400613E-04  11  10   5   1
 -2.6197256689285686E-03  11  10   5   2
  1.0097218053970736E-03  11  10   5   3
  1.9231151075791032E-02  11  10   5   4
  6.0283947337228784E-02  11  10   5   5
  2.3284295450119634E-03  11  10   6   1
  8.5778372786210842E-03  11  10   6   2
  3.3153283124698757E-02  11  10   6   3
 -1.6460439477184317E-02  11  10   6   4
  3.7083731304933050E-03  11  10   6   5
  9.5807129067854487E-03  11  10   6   6
  2.5257551956527763E-03  11  10   7   1
  2.3837458791292530E-02  11  10   7   2
  8.6774112024735721E-03  11  10   7   3
  1.7688105549906186E-03  11  10   7   4
  5.3204357588711518E-03  11  10   7   5
 -1.4468687995419895E-02  11  10   7   6
  3.0669500393718414E-02  11  10   7   7
  4.5495203593595643E-02  11  10   8   8
  4.2733352125113831E-03  11  10   9   8
  2.8201118842442210E-02  11  10   9   9
 -2.6630012632177010E-02  11  10  10   8
  8.6221325226220544E-03  11  10  10   9
  3.3401815531963808E-02  11  10  10  10
  3.2168522677845542E-02  11  10  11   8
  2.0658722367691527E-02  11  10  11   9
  3.3705566619692408E-02  11  10  11  10
  1.0058477446129319E+00  11  11   1   1
  1.8835439270988814E-02  11  11   2   1
  6.1338875208973953E-01  11  11   2   2
  5.5477386250046817E-03  11  11   3   1
  4.1347482054635329E-02  11  11   3   2
  5.8270352490979938E-01  11  11   3   3
  6.2963348010376674E-03  11  11   4   1
  7.5317756928938828E-02  11  11   4   2
 -6.2132646225995514E-02  11  11   4   3
  3.5726022665259749E-01  11  11   4   4
  6.3675428571007275E-03  11  11   5   1
  4.5813740645078205E-02  11  11   5   2
 -5.3644348357991055E-02  11  11   5   3
  9.6358501528960611E-02  11  11   5   4
  4.6707086493857014E-01  11  11   5   5
  5.7426767186427152E-03  11  11   6   1
  2.1685676797039394E-02  11  11   6   2
  1.3396241638496736E-01  11  11   6   3
 -1.4055145592308107E-02  11  11   6   4
 -5.9425508905002158E-02  11  11   6   5
  5.2610345829230443E-01  11  11   6   6
  1.4571003125394083E-02  11  11   7   1
  1.0354527086109605E-01  11  11   7   2
  1.2192355489119039E-02  11  11   7   3
  7.5985855978804390E-02  11  11   7   4
  3.7380865045089189E-02  11  11   7   5