    -----------------------------------------------------------------------
          PSI4: An Open-Source Ab Initio Electronic Structure Package
                              PSI 4.0.0-beta5 Driver

    J. M. Turney, A. C. Simmonett, R. M. Parrish, E. G. Hohenstein,
    F. A. Evangelista, J. T. Fermann, B. J. Mintz, L. A. Burns, J. J. Wilke,
    M. L. Abrams, N. J. Russ, M. L. Leininger, C. L. Janssen, E. T. Seidl,
    W. D. Allen, H. F. Schaefer, R. A. King, E. F. Valeev, C. D. Sherrill,
    and T. D. Crawford, WIREs Comput. Mol. Sci., (2011) (doi: 10.1002/wcms.93)

                         Additional Contributions by
    A. E. DePrince, M. Saitow, U. Bozkaya, A. Yu. Sokolov
    -----------------------------------------------------------------------

    Process ID:   3390
    PSI4DATADIR: /home/seba/Desktop/psi4.0b5/lib

    Using LocalCommunicator (Number of processes = 1)

    Memory level set to 256.000 MB

  ==> Input File <==

--------------------------------------------------------------------------
molecule H2O {
0 1
O 	0.000000000   0.00   0.0000
H       0.790689766   0.00   0.612217330
H      -0.790689766   0.00   0.612217330
units angstrom
}

plugin_load("./mointegrals.so")

set basis 6-31G
set mointegrals print 1
set reference rhf
set e_convergence 1e-13
set d_convergence 1e-13
set ints_tolerance 0.0

scf()

plugin("mointegrals.so")

--------------------------------------------------------------------------
./mointegrals.so loaded.

*** tstart() called on seb-latitude
*** at Wed Nov  5 23:16:45 2014


         ---------------------------------------------------------
                                   SCF
            by Justin Turney, Rob Parrish, and Andy Simmonett
                              RHF Reference
                        1 Threads,    256 MiB Core
         ---------------------------------------------------------

  ==> Geometry <==

    Molecular point group: c2v
    Full point group: C2v

    Geometry (in Angstrom), charge = 0, multiplicity = 1:

       Center              X                  Y                   Z       
    ------------   -----------------  -----------------  -----------------
           O          0.000000000000     0.000000000000    -0.068516224902
           H          0.790689766000     0.000000000000     0.543701105098
           H         -0.790689766000    -0.000000000000     0.543701105098

  Running in c2v symmetry.

  Nuclear repulsion =    8.801463902522988

  Charge       = 0
  Multiplicity = 1
  Electrons    = 10
  Nalpha       = 5
  Nbeta        = 5

  ==> Algorithm <==

  SCF Algorithm Type is PK.
  DIIS enabled.
  MOM disabled.
  Fractional occupation disabled.
  Guess Type is CORE.
  Energy threshold   = 1.00e-13
  Density threshold  = 1.00e-13
  Integral threshold = 0.00e+00

  ==> Primary Basis <==

  Basis Set: 6-31G
    Number of shells: 9
    Number of basis function: 13
    Number of Cartesian functions: 13
    Spherical Harmonics?: false
    Max angular momentum: 1

  ==> Pre-Iterations <==

   -------------------------------------------------------
    Irrep   Nso     Nmo     Nalpha   Nbeta   Ndocc  Nsocc
   -------------------------------------------------------
     A1         7       7       0       0       0       0
     A2         0       0       0       0       0       0
     B1         4       4       0       0       0       0
     B2         2       2       0       0       0       0
   -------------------------------------------------------
    Total      13      13       5       5       5       0
   -------------------------------------------------------

  Starting with a DF guess...

 OEINTS: Wrapper to libmints.
   by Justin Turney

   Calculation information:
      Number of atoms:                   3
      Number of AO shells:               9
      Number of SO shells:               7
      Number of primitives:             22
      Number of atomic orbitals:        13
      Number of basis functions:        13

      Number of irreps:                  4
      Number of functions per irrep: [   7    0    4    2 ]

      Overlap, kinetic, potential, dipole, and quadrupole integrals
        stored in file 35.

  ==> Integral Setup <==

  ==> DFJK: Density-Fitted J/K Matrices <==

    J tasked:                  Yes
    K tasked:                  Yes
    wK tasked:                  No
    OpenMP threads:              1
    Integrals threads:           1
    Memory (MB):               183
    Algorithm:                Core
    Integral Cache:           NONE
    Schwarz Cutoff:          0E+00
    Fitting Condition:       1E-12

   => Auxiliary Basis Set <=

  Basis Set: CC-PVDZ-JKFIT
    Number of shells: 42
    Number of basis function: 116
    Number of Cartesian functions: 131
    Spherical Harmonics?: true
    Max angular momentum: 3

  Minimum eigenvalue in the overlap matrix is 7.3923818694E-02.
  Using Symmetric Orthogonalization.
  SCF Guess: Core (One-Electron) Hamiltonian.

  ==> Iterations <==

                           Total Energy        Delta E     RMS |[F,P]|

	Occupation by irrep:
	         A1    A2    B1    B2 
	DOCC [     3,    0,    2,    0 ]

   @DF-RHF iter   1:   -69.55594217736672   -6.95559e+01   3.07151e-01 
	Occupation by irrep:
	         A1    A2    B1    B2 
	DOCC [     3,    0,    1,    1 ]

   @DF-RHF iter   2:   -70.81484665668164   -1.25890e+00   2.88927e-01 DIIS
   @DF-RHF iter   3:   -75.88288725234926   -5.06804e+00   5.56657e-02 DIIS
   @DF-RHF iter   4:   -75.97421422345911   -9.13270e-02   1.12228e-02 DIIS
   @DF-RHF iter   5:   -75.97991727512367   -5.70305e-03   1.93256e-03 DIIS
   @DF-RHF iter   6:   -75.98012713655190   -2.09861e-04   6.13349e-04 DIIS
   @DF-RHF iter   7:   -75.98015223075029   -2.50942e-05   2.34346e-04 DIIS
   @DF-RHF iter   8:   -75.98015380842973   -1.57768e-06   2.35698e-05 DIIS
   @DF-RHF iter   9:   -75.98015384569925   -3.72695e-08   5.37581e-06 DIIS
   @DF-RHF iter  10:   -75.98015384692310   -1.22385e-09   4.84106e-07 DIIS
   @DF-RHF iter  11:   -75.98015384693923   -1.61293e-11   1.12646e-07 DIIS
   @DF-RHF iter  12:   -75.98015384693977   -5.40012e-13   9.43778e-09 DIIS
   @DF-RHF iter  13:   -75.98015384693964    1.27898e-13   4.38608e-10 DIIS
   @DF-RHF iter  14:   -75.98015384693961    2.84217e-14   4.55157e-11 DIIS
   @DF-RHF iter  15:   -75.98015384693970   -8.52651e-14   4.19203e-12 DIIS
   @DF-RHF iter  16:   -75.98015384693957    1.27898e-13   1.64822e-13 DIIS
   @DF-RHF iter  17:   -75.98015384693967   -9.94760e-14   3.13509e-14 DIIS

  DF guess converged.

  ==> Integral Setup <==

 MINTS: Wrapper to libmints.
   by Justin Turney

   Calculation information:
      Number of atoms:                   3
      Number of AO shells:               9
      Number of SO shells:               7
      Number of primitives:             22
      Number of atomic orbitals:        13
      Number of basis functions:        13

      Number of irreps:                  4
      Integral cutoff                 0.00e+00
      Number of functions per irrep: [   7    0    4    2 ]

      Overlap, kinetic, potential, dipole, and quadrupole integrals
        stored in file 35.

      Computing two-electron integrals...done
      Computed 1270 non-zero two-electron integrals.
        Stored in file 33.

	Batch   1 pq = [       0,      41] index = [             0,861]
  ==> DiskJK: Disk-Based J/K Matrices <==

    J tasked:                  Yes
    K tasked:                  Yes
    wK tasked:                  No
    Memory (MB):               183
    Schwarz Cutoff:          0E+00

   @RHF iter  18:   -75.98015789422195   -4.04728e-06   2.48272e-06 DIIS
   @RHF iter  19:   -75.98015789455492   -3.32975e-10   7.36525e-07 DIIS
   @RHF iter  20:   -75.98015789459211   -3.71898e-11   3.49702e-07 DIIS
   @RHF iter  21:   -75.98015789459596   -3.85114e-12   6.21052e-08 DIIS
   @RHF iter  22:   -75.98015789459629   -3.26850e-13   8.31723e-09 DIIS
   @RHF iter  23:   -75.98015789459635   -5.68434e-14   1.85675e-09 DIIS
   @RHF iter  24:   -75.98015789459637   -2.84217e-14   3.64576e-10 DIIS
   @RHF iter  25:   -75.98015789459626    1.13687e-13   3.11664e-11 DIIS
   @RHF iter  26:   -75.98015789459632   -5.68434e-14   5.79238e-12 DIIS
   @RHF iter  27:   -75.98015789459629    2.84217e-14   5.72048e-13 DIIS
   @RHF iter  28:   -75.98015789459629    0.00000e+00   1.29401e-13 DIIS
   @RHF iter  29:   -75.98015789459633   -4.26326e-14   3.20499e-14 DIIS

  ==> Post-Iterations <==

	Orbital Energies (a.u.)
	-----------------------

	Doubly Occupied:                                                      

	   1A1   -20.568891     2A1    -1.334712     1B1    -0.686878  
	   3A1    -0.554302     1B2    -0.499291  

	Virtual:                                                              

	   4A1     0.193411     2B1     0.287588     3B1     1.041437  
	   5A1     1.130316     2B2     1.164392     6A1     1.220937  
	   4B1     1.368875     7A1     1.693480  

	Final Occupation by Irrep:
	         A1    A2    B1    B2 
	DOCC [     3,    0,    1,    1 ]

  Energy converged.

  @RHF Final Energy:   -75.98015789459633

   => Energetics <=

    Nuclear Repulsion Energy =              8.8014639025229879
    One-Electron Energy =                -122.2750934077443929
    Two-Electron Energy =                  37.4934716106251074
    DFT Exchange-Correlation Energy =       0.0000000000000000
    Empirical Dispersion Energy =           0.0000000000000000
    Total Energy =                        -75.9801578945963030



Properties will be evaluated at   0.000000,   0.000000,   0.000000 Bohr
  ==> Properties <==


Properties computed using the SCF density density matrix
  Nuclear Dipole Moment: (a.u.)
     X:     0.0000      Y:     0.0000      Z:     1.0191

  Electronic Dipole Moment: (a.u.)
     X:     0.0000      Y:     0.0000      Z:     0.0213

  Dipole Moment: (a.u.)
     X:     0.0000      Y:     0.0000      Z:     1.0404     Total:     1.0404

  Dipole Moment: (Debye)
     X:     0.0000      Y:     0.0000      Z:     2.6444     Total:     2.6444


  Saving occupied orbitals to File 180.

*** tstop() called on seb-latitude at Wed Nov  5 23:16:45 2014
Module time:
	user time   =       0.12 seconds =       0.00 minutes
	system time =       0.01 seconds =       0.00 minutes
	total time  =          0 seconds =       0.00 minutes
Total time:
	user time   =       0.12 seconds =       0.00 minutes
	system time =       0.01 seconds =       0.00 minutes
	total time  =          0 seconds =       0.00 minutes
Reading options from the MOINTEGRALS block
Calling plugin mointegrals.so.
	Presorting SO-basis two-electron integrals.
	Sorting File: SO Ints (nn|nn) nbuckets = 1
	Transforming the one-electron integrals and constructing Fock matrices
	Starting first half-transformation.
	Sorting half-transformed integrals.
	First half integral transformation complete.
	Starting second half-transformation.
	Two-electron integral transformation complete.
  ## MO OEI (Symmetry 0) ##
  Irrep: 1 Size: 7 x 7

                 1            2            3            4            5

    1  -32.9789102   -0.5793436   -0.1914111   -0.1879213   -0.1765660
    2   -0.5793436   -7.7806604   -0.3016620   -1.0428647   -0.6900916
    3   -0.1914111   -0.3016620   -6.8017856    0.7681013    0.7871451
    4   -0.1879213   -1.0428647    0.7681013   -3.6810133   -1.2692861
    5   -0.1765660   -0.6900916    0.7871451   -1.2692861   -4.2790130
    6   -0.1967942   -0.3416593   -1.7988658    0.3603987    0.8151981
    7   -0.4430966   -1.2888291   -0.2219234   -0.9682251   -0.5332658

                 6            7

    1   -0.1967942   -0.4430966
    2   -0.3416593   -1.2888291
    3   -1.7988658   -0.2219234
    4    0.3603987   -0.9682251
    5    0.8151981   -0.5332658
    6   -4.8217829   -0.1673168
    7   -0.1673168   -4.1838070



  Irrep: 2 Size: 0 x 0

	(empty)

  Irrep: 3 Size: 4 x 4

                 1            2            3            4

    1   -6.5043153   -1.4283691   -0.2285839   -1.5716529
    2   -1.4283691   -3.7175738   -0.9303475   -1.5490792
    3   -0.2285839   -0.9303475   -3.5470314   -0.4818501
    4   -1.5716529   -1.5490792   -0.4818501   -5.1660072



  Irrep: 4 Size: 2 x 2

                 1            2

    1   -7.0718753   -2.1146925
    2   -2.1146925   -5.2556596



****  Molecular Integrals For CheMPS Start Here 
Symmetry Label = c2v 
Nirreps = 4 
Nuclear Repulsion Energy = 8.801463902522987936549725418444722890853881835938 
Number Of Molecular Orbitals = 13 
Irreps Of Molecular Orbitals = 
0 0 0 0 0 0 0 2 2 2 2 3 3 
DOCC =  3  0  1  1 
SOCC =  0  0  0  0 
****  MO OEI 
0 0 -32.978910174739645810859656194224953651428222656250 
0 1 -0.579343559072572400481249133008532226085662841797 
0 2 -0.191411099565000464295394522196147590875625610352 
0 3 -0.187921286620466254646544257411733269691467285156 
0 4 -0.176565951987118552324318443424999713897705078125 
0 5 -0.196794205801766236563210554777469951659440994263 
0 6 -0.443096587911616879296161641832441091537475585938 
1 0 -0.579343559072572400481249133008532226085662841797 
1 1 -7.780660433043058432645011635031551122665405273438 
1 2 -0.301661951746964196452438500273274257779121398926 
1 3 -1.042864719476546575549491535639390349388122558594 
1 4 -0.690091591348323873944536899216473102569580078125 
1 5 -0.341659283675845804051363074904656969010829925537 
1 6 -1.288829135549501181401410576654598116874694824219 
2 0 -0.191411099565000464295394522196147590875625610352 
2 1 -0.301661951746964196452438500273274257779121398926 
2 2 -6.801785550610969011131601291708648204803466796875 
2 3 0.768101323464697394172162603354081511497497558594 
2 4 0.787145105051206939172914189839502796530723571777 
2 5 -1.798865776866453991544858581619337201118469238281 
2 6 -0.221923439844665892906050430610775947570800781250 
3 0 -0.187921286620466254646544257411733269691467285156 
3 1 -1.042864719476546575549491535639390349388122558594 
3 2 0.768101323464697394172162603354081511497497558594 
3 3 -3.681013275419660502052465744782239198684692382812 
3 4 -1.269286116675783615548311900056432932615280151367 
3 5 0.360398674085549486356683246413012966513633728027 
3 6 -0.968225138356056946875582980283070355653762817383 
4 0 -0.176565951987118552324318443424999713897705078125 
4 1 -0.690091591348323873944536899216473102569580078125 
4 2 0.787145105051206939172914189839502796530723571777 
4 3 -1.269286116675783615548311900056432932615280151367 
4 4 -4.279013001979143027142526989337056875228881835938 
4 5 0.815198148232448072114664228138281032443046569824 
4 6 -0.533265833311878489908508527150843292474746704102 
5 0 -0.196794205801766236563210554777469951659440994263 
5 1 -0.341659283675845804051363074904656969010829925537 
5 2 -1.798865776866453991544858581619337201118469238281 
5 3 0.360398674085549486356683246413012966513633728027 
5 4 0.815198148232448072114664228138281032443046569824 
5 5 -4.821782875487028441341408324660733342170715332031 
5 6 -0.167316792732281921507464517162588890641927719116 
6 0 -0.443096587911616879296161641832441091537475585938 
6 1 -1.288829135549501181401410576654598116874694824219 
6 2 -0.221923439844665892906050430610775947570800781250 
6 3 -0.968225138356056946875582980283070355653762817383 
6 4 -0.533265833311878489908508527150843292474746704102 
6 5 -0.167316792732281921507464517162588890641927719116 
6 6 -4.183806987632715745917266758624464273452758789062 
7 7 -6.504315272945552450778450293000787496566772460938 
7 8 -1.428369101925653694706852547824382781982421875000 
7 9 -0.228583891543531869672278844518586993217468261719 
7 10 -1.571652881116650579684801414259709417819976806641 
8 7 -1.428369101925653694706852547824382781982421875000 
8 8 -3.717573821410696588429800613084807991981506347656 
8 9 -0.930347492488303284829953554435633122920989990234 
8 10 -1.549079222579067049991863314062356948852539062500 
9 7 -0.228583891543531869672278844518586993217468261719 
9 8 -0.930347492488303284829953554435633122920989990234 
9 9 -3.547031426936990250453618500614538788795471191406 
9 10 -0.481850085737908218064262655389029532670974731445 
10 7 -1.571652881116650579684801414259709417819976806641 
10 8 -1.549079222579067049991863314062356948852539062500 
10 9 -0.481850085737908218064262655389029532670974731445 
10 10 -5.166007169907606666470201162155717611312866210938 
11 11 -7.071875272533626244353399670217186212539672851562 
11 12 -2.114692496867673909832774370443075895309448242188 
12 11 -2.114692496867673909832774370443075895309448242188 
12 12 -5.255659589486160854221452609635889530181884765625 
****  MO TEI 
0 0 0 0 4.739993442734841799790501681854948401451110839844 
0 0 0 1 0.429742309766368291157334624585928395390510559082 
0 0 0 2 0.147005083366613331641303830110700801014900207520 
0 0 0 3 0.148995694023629443591971721616573631763458251953 
0 0 0 4 0.140396469963433634386973380969720892608165740967 
0 0 0 5 0.158777023921654575344675208725675474852323532104 
0 0 0 6 0.355179314169113247157127943864907138049602508545 
0 0 1 0 0.429742309766368291157334624585928395390510559082 
0 0 1 1 1.042246060791718109683756665617693215608596801758 
0 0 1 2 0.095174043637544697427088635777181480079889297485 
0 0 1 3 0.223379813905291602083025281899608671665191650391 
0 0 1 4 0.181594987173084976284087588283000513911247253418 
0 0 1 5 0.091530250690668266133620534219517139717936515808 
0 0 1 6 0.344148095489690497572610183851793408393859863281 
0 0 2 0 0.147005083366613331641303830110700801014900207520 
0 0 2 1 0.095174043637544697427088635777181480079889297485 
0 0 2 2 0.968899712686036140851797426876146346330642700195 
0 0 2 3 -0.151382429250553646182808620324067305773496627808 
0 0 2 4 -0.201245417662862857710592834337148815393447875977 
0 0 2 5 0.428344146096093392195314208947820588946342468262 
0 0 2 6 0.047993711341760100785869269657268887385725975037 
0 0 3 0 0.148995694023629443591971721616573631763458251953 
0 0 3 1 0.223379813905291602083025281899608671665191650391 
0 0 3 2 -0.151382429250553646182808620324067305773496627808 
0 0 3 3 0.464337981128519761142570132506079971790313720703 
0 0 3 4 0.226767423033146675592774954566266387701034545898 
0 0 3 5 -0.090674372359224111872499918263201834633946418762 
0 0 3 6 0.194720679306698174482193053336231969296932220459 
0 0 4 0 0.140396469963433634386973380969720892608165740967 
0 0 4 1 0.181594987173084976284087588283000513911247253418 
0 0 4 2 -0.201245417662862857710592834337148815393447875977 
0 0 4 3 0.226767423033146675592774954566266387701034545898 
0 0 4 4 0.687185983979146763900303085392806679010391235352 
0 0 4 5 -0.206435455541154472269838038300804328173398971558 
0 0 4 6 0.155944543968036086756256963781197555363178253174 
0 0 5 0 0.158777023921654575344675208725675474852323532104 
0 0 5 1 0.091530250690668266133620534219517139717936515808 
0 0 5 2 0.428344146096093392195314208947820588946342468262 
0 0 5 3 -0.090674372359224111872499918263201834633946418762 
0 0 5 4 -0.206435455541154472269838038300804328173398971558 
0 0 5 5 0.886467001774337126640546102862572297453880310059 
0 0 5 6 0.047421014201850950064986989218596136197447776794 
0 0 6 0 0.355179314169113247157127943864907138049602508545 
0 0 6 1 0.344148095489690497572610183851793408393859863281 
0 0 6 2 0.047993711341760100785869269657268887385725975037 
0 0 6 3 0.194720679306698174482193053336231969296932220459 
0 0 6 4 0.155944543968036086756256963781197555363178253174 
0 0 6 5 0.047421014201850950064986989218596136197447776794 
0 0 6 6 0.803385430489500285133885881805326789617538452148 
0 0 7 7 0.852392978624094355133422595827141776680946350098 
0 0 7 8 0.287645206383131402105846063932403922080993652344 
0 0 7 9 0.082573159502162346567999406943272333592176437378 
0 0 7 10 0.393629961023996055580198571988148614764213562012 
0 0 8 7 0.287645206383131402105846063932403922080993652344 
0 0 8 8 0.492556886583875086493833350687054917216300964355 
0 0 8 9 0.142698361766584597143392443285847548395395278931 
0 0 8 10 0.319092115648806351480004650511546060442924499512 
0 0 9 7 0.082573159502162346567999406943272333592176437378 
0 0 9 8 0.142698361766584597143392443285847548395395278931 
0 0 9 9 0.496731842834836345712545835340279154479503631592 
0 0 9 10 0.117842445015601066105048744248051661998033523560 
0 0 10 7 0.393629961023996055580198571988148614764213562012 
0 0 10 8 0.319092115648806351480004650511546060442924499512 
0 0 10 9 0.117842445015601066105048744248051661998033523560 
0 0 10 10 1.005847744612921701445884536951780319213867187500 
0 0 11 11 1.042698181695367320998002469423227012157440185547 
0 0 11 12 0.508470196687493936060775467922212556004524230957 
0 0 12 11 0.508470196687493936060775467922212556004524230957 
0 0 12 12 0.978238255191068661886788504489231854677200317383 
0 1 0 0 0.429742309766367902579276005781139247119426727295 
0 1 0 1 0.063597487420653617262722434588795294985175132751 
0 1 0 2 0.017351065952171808998150126512882707174867391586 
0 1 0 3 0.024004807447712009360607510188856394961476325989 
0 1 0 4 0.024259367393451088112943381247532670386135578156 
0 1 0 5 0.018248126266052266952755189777235500514507293701 
0 1 0 6 0.053429827183618466834857940739311743527650833130 
0 1 1 0 0.063597487420653617262722434588795294985175132751 
0 1 1 1 0.013736520873316782065387542388634756207466125488 
0 1 1 2 0.008328830643515826304135174495968385599553585052 
0 1 1 3 0.004244425221928947895844164150958022219128906727 
0 1 1 4 0.004279379114653168725279641648739925585687160492 
0 1 1 5 0.006496481146894595576357644972631533164530992508 
0 1 1 6 0.012598256508718800109059010594592109555378556252 
0 1 2 0 0.017351065952171808998150126512882707174867391586 
0 1 2 1 0.008328830643515826304135174495968385599553585052 
0 1 2 2 0.013144096575813085658879231232276652008295059204 
0 1 2 3 -0.001434042373526477499173781282593154173810034990 
0 1 2 4 -0.005050521162209910958074132736328465398401021957 
0 1 2 5 0.014172384887227744074134072604920220328494906425 
0 1 2 6 0.003916050951987852177249571639094938291236758232 
0 1 3 0 0.024004807447712009360607510188856394961476325989 
0 1 3 1 0.004244425221928947895844164150958022219128906727 
0 1 3 2 -0.001434042373526477499173781282593154173810034990 
0 1 3 3 0.002181157719420838414503549529399606399238109589 
0 1 3 4 0.003488244109287272961411607852255656325723975897 
0 1 3 5 -0.001632711290783296111117639526355560519732534885 
0 1 3 6 0.004548488728064171288112405022729944903403520584 
0 1 4 0 0.024259367393451088112943381247532670386135578156 
0 1 4 1 0.004279379114653168725279641648739925585687160492 
0 1 4 2 -0.005050521162209910958074132736328465398401021957 
0 1 4 3 0.003488244109287272961411607852255656325723975897 
0 1 4 4 0.004828081525326658601793283764891384635120630264 
0 1 4 5 -0.006503610593313564891548850255276192910969257355 
0 1 4 6 0.004666224753589106981344070135264701093547046185 
0 1 5 0 0.018248126266052266952755189777235500514507293701 
0 1 5 1 0.006496481146894595576357644972631533164530992508 
0 1 5 2 0.014172384887227744074134072604920220328494906425 
0 1 5 3 -0.001632711290783296111117639526355560519732534885 
0 1 5 4 -0.006503610593313564891548850255276192910969257355 
0 1 5 5 0.017324252983788319959490564770021592266857624054 
0 1 5 6 0.004741905955487490595401389725793706020340323448 
0 1 6 0 0.053429827183618466834857940739311743527650833130 
0 1 6 1 0.012598256508718800109059010594592109555378556252 
0 1 6 2 0.003916050951987852177249571639094938291236758232 
0 1 6 3 0.004548488728064171288112405022729944903403520584 
0 1 6 4 0.004666224753589106981344070135264701093547046185 
0 1 6 5 0.004741905955487490595401389725793706020340323448 
0 1 6 6 0.010441047854214539555850471685971569968387484550 
0 1 7 7 0.006380040050841850711449421140741833369247615337 
0 1 7 8 0.005297876170860052642830329006073952768929302692 
0 1 7 9 0.003460278335466633430062000087445994722656905651 
0 1 7 10 0.011323870194848819140109874581412441330030560493 
0 1 8 7 0.005297876170860052642830329006073952768929302692 
0 1 8 8 0.003271677940466269710051427921371214324608445168 
0 1 8 9 0.001860687249355862538796602123625234526116400957 
0 1 8 10 0.007888988647124747441430336891698971157893538475 
0 1 9 7 0.003460278335466633430062000087445994722656905651 
0 1 9 8 0.001860687249355862538796602123625234526116400957 
0 1 9 9 0.000211100568260212304548539830051367971464060247 
0 1 9 10 0.003502818635834716899657426125713755027391016483 
0 1 10 7 0.011323870194848819140109874581412441330030560493 
0 1 10 8 0.007888988647124747441430336891698971157893538475 
0 1 10 9 0.003502818635834716899657426125713755027391016483 
0 1 10 10 0.018835439270988380000559914151381235569715499878 
0 1 11 11 0.011475148011738961484340393326419871300458908081 
0 1 11 12 0.013963125193134078017020982542817364446818828583 
0 1 12 11 0.013963125193134078017020982542817364446818828583 
0 1 12 12 0.017258133116624101155434090060225571505725383759 
0 2 0 0 0.147005083366613192863425751966133248060941696167 
0 2 0 1 0.017351065952171815937044030420111084822565317154 
0 2 0 2 0.029715686525800134171193533916266460437327623367 
0 2 0 3 -0.002321423469718640261727493623311602277681231499 
0 2 0 4 -0.011065944870483346296197169067454524338245391846 
0 2 0 5 0.035437351510311639046779674799836357124149799347 
0 2 0 6 0.010830086666757285721041093040639680111780762672 
0 2 1 0 0.017351065952171815937044030420111084822565317154 
0 2 1 1 0.015323349387100731675004361420633358648046851158 
0 2 1 2 -0.021360908938007516777446426203823648393154144287 
0 2 1 3 0.011881190495848788918342719966858567204326391220 
0 2 1 4 0.013269565771547212063019571814947994425892829895 
0 2 1 5 -0.011354158385922118526534241311765072168782353401 
0 2 1 6 0.009172176193647799818942090155360347125679254532 
0 2 2 0 0.029715686525800134171193533916266460437327623367 
0 2 2 1 -0.021360908938007516777446426203823648393154144287 
0 2 2 2 -0.010958909351638646337279148212928703287616372108 
0 2 2 3 -0.002602547304847224046708831224350433330982923508 
0 2 2 4 -0.001380966416765596824212103399531770264729857445 
0 2 2 5 -0.006039615696121560482756418508643037057481706142 
0 2 2 6 -0.009327711839825126791114762170309404609724879265 
0 2 3 0 -0.002321423469718640261727493623311602277681231499 
0 2 3 1 0.011881190495848788918342719966858567204326391220 
0 2 3 2 -0.002602547304847224046708831224350433330982923508 
0 2 3 3 0.008325291372937918682461955199869407806545495987 
0 2 3 4 0.008456071314282720408073146245442330837249755859 
0 2 3 5 -0.004723959098553154149768840142087356070987880230 
0 2 3 6 0.008072872013474986785386278143050731159746646881 
0 2 4 0 -0.011065944870483346296197169067454524338245391846 
0 2 4 1 0.013269565771547212063019571814947994425892829895 
0 2 4 2 -0.001380966416765596824212103399531770264729857445 
0 2 4 3 0.008456071314282720408073146245442330837249755859 
0 2 4 4 0.014352503944220265305609096628813858842477202415 
0 2 4 5 -0.001005285636647115744476965737419504876015707850 
0 2 4 6 0.011575433837925482027930712547458824701607227325 
0 2 5 0 0.035437351510311639046779674799836357124149799347 
0 2 5 1 -0.011354158385922118526534241311765072168782353401 
0 2 5 2 -0.006039615696121560482756418508643037057481706142 
0 2 5 3 -0.004723959098553154149768840142087356070987880230 
0 2 5 4 -0.001005285636647115744476965737419504876015707850 
0 2 5 5 -0.008580713614957423754359133738489617826417088509 
0 2 5 6 -0.013960721312861607001920560833241324871778488159 
0 2 6 0 0.010830086666757285721041093040639680111780762672 
0 2 6 1 0.009172176193647799818942090155360347125679254532 
0 2 6 2 -0.009327711839825126791114762170309404609724879265 
0 2 6 3 0.008072872013474986785386278143050731159746646881 
0 2 6 4 0.011575433837925482027930712547458824701607227325 
0 2 6 5 -0.013960721312861607001920560833241324871778488159 
0 2 6 6 0.012478734723773155998460815396811085520312190056 
0 2 7 7 0.005801192124811054007249566666359896771609783173 
0 2 7 8 -0.000170857396178391695434894970162531535606831312 
0 2 7 9 -0.004766975312986001384052414664438401814550161362 
0 2 7 10 0.004374005454527491419669527061842018156312406063 
0 2 8 7 -0.000170857396178391695434894970162531535606831312 
0 2 8 8 0.001825380932046602802665269393855851376429200172 
0 2 8 9 -0.000718315912007579018133673898205415753182023764 
0 2 8 10 0.002891676603817837018506331503431283636018633842 
0 2 9 7 -0.004766975312986001384052414664438401814550161362 
0 2 9 8 -0.000718315912007579018133673898205415753182023764 
0 2 9 9 0.002816279936161186422949320729003375163301825523 
0 2 9 10 0.002331133382824558935436654039108361757826060057 
0 2 10 7 0.004374005454527491419669527061842018156312406063 
0 2 10 8 0.002891676603817837018506331503431283636018633842 
0 2 10 9 0.002331133382824558935436654039108361757826060057 
0 2 10 10 0.005547738625003655575651517750657149008475244045 
0 2 11 11 0.003573631032914710310005590443438450165558606386 
0 2 11 12 0.004464812294781344594041261331085479469038546085 
0 2 12 11 0.004464812294781344594041261331085479469038546085 
0 2 12 12 0.005537443804508355299498489898724074009805917740 
0 3 0 0 0.148995694023629082769488718440697994083166122437 
0 3 0 1 0.024004807447712005891160558235242206137627363205 
0 3 0 2 -0.002321423469718643731174445576925791101530194283 
0 3 0 3 0.012220657515411494087320676271701813675463199615 
0 3 0 4 0.015447260485387829739845066967518505407497286797 
0 3 0 5 -0.003938755190516575119263897875043767271563410759 
0 3 0 6 0.021479029003161557997980679601823794655501842499 
0 3 1 0 0.024004807447712005891160558235242206137627363205 
0 3 1 1 0.000656790159198423085379348052015302528161555529 
0 3 1 2 0.011287177110317739986422580500402546022087335587 
0 3 1 3 -0.002317430755173577848482491248205406009219586849 
0 3 1 4 -0.002837211743445848359523875359400335582904517651 
0 3 1 5 0.006974884958685792848975815161338687175884842873 
0 3 1 6 0.002440100672754591786678401987842335074674338102 
0 3 2 0 -0.002321423469718643731174445576925791101530194283 
0 3 2 1 0.011287177110317739986422580500402546022087335587 
0 3 2 2 0.009483617013604880852106759903108468279242515564 
0 3 2 3 0.000386780640149927620874414913032524054870009422 
0 3 2 4 -0.001638597881928685780217325174135112320072948933 
0 3 2 5 0.008384139759770290606377685094230400864034891129 
0 3 2 6 0.005107768646879354279555229823017725721001625061 
0 3 3 0 0.012220657515411494087320676271701813675463199615 
0 3 3 1 -0.002317430755173577848482491248205406009219586849 
0 3 3 2 0.000386780640149927620874414913032524054870009422 
0 3 3 3 -0.002004604692174745145943903779084394045639783144 
0 3 3 4 -0.001494417323110456630522180354603278829017654061 
0 3 3 5 0.000996285764638204065016258148546057782368734479 
0 3 3 6 -0.000860992197303472265451640410560685268137603998 
0 3 4 0 0.015447260485387829739845066967518505407497286797 
0 3 4 1 -0.002837211743445848359523875359400335582904517651 
0 3 4 2 -0.001638597881928685780217325174135112320072948933 
0 3 4 3 -0.001494417323110456630522180354603278829017654061 
0 3 4 4 -0.002999544724555625388462409830481192329898476601 
0 3 4 5 -0.002443284375587492524700694573880355164874345064 
0 3 4 6 -0.002020516572977893408891159054974195896647870541 
0 3 5 0 -0.003938755190516575119263897875043767271563410759 
0 3 5 1 0.006974884958685792848975815161338687175884842873 
0 3 5 2 0.008384139759770290606377685094230400864034891129 
0 3 5 3 0.000996285764638204065016258148546057782368734479 
0 3 5 4 -0.002443284375587492524700694573880355164874345064 
0 3 5 5 0.010594507865605402863184991701928083784878253937 
0 3 5 6 0.007099523253374109832414262655220227316021919250 
0 3 6 0 0.021479029003161557997980679601823794655501842499 
0 3 6 1 0.002440100672754591786678401987842335074674338102 
0 3 6 2 0.005107768646879354279555229823017725721001625061 
0 3 6 3 -0.000860992197303472265451640410560685268137603998 
0 3 6 4 -0.002020516572977893408891159054974195896647870541 
0 3 6 5 0.007099523253374109832414262655220227316021919250 
0 3 6 6 0.000162209359894746943647064751914399494125973433 
0 3 7 7 0.000660626843696420222758203255608577819657512009 
0 3 7 8 0.002329632888020688116781364840335299959406256676 
0 3 7 9 0.003155203806447636621923535926725890021771192551 
0 3 7 10 0.003422485183862733048448800943219794135075062513 
0 3 8 7 0.002329632888020688116781364840335299959406256676 
0 3 8 8 0.000774867519064343637444358670052224624669179320 
0 3 8 9 0.001033826446432801159092118581384056597016751766 
0 3 8 10 0.002419755741418963979755263338233817194122821093 
0 3 9 7 0.003155203806447636621923535926725890021771192551 
0 3 9 8 0.001033826446432801159092118581384056597016751766 
0 3 9 9 -0.000934793028314808999851281967607974365819245577 
0 3 9 10 0.000743767193698741937643581501049538928782567382 
0 3 10 7 0.003422485183862733048448800943219794135075062513 
0 3 10 8 0.002419755741418963979755263338233817194122821093 
0 3 10 9 0.000743767193698741937643581501049538928782567382 
0 3 10 10 0.006296334801038085474123029428028530674055218697 
0 3 11 11 0.003387233967445257495909594069871673127636313438 
0 3 11 12 0.004399648269920286569600875736796297132968902588 
0 3 12 11 0.004399648269920286569600875736796297132968902588 
0 3 12 12 0.005388907012053834565123988653567721485160291195 
0 4 0 0 0.140396469963433745409275843485374934971332550049 
0 4 0 1 0.024259367393451143624094612505359691567718982697 
0 4 0 2 -0.011065944870483328948962409299383580219000577927 
0 4 0 3 0.015447260485387855760697206619624921586364507675 
0 4 0 4 0.021828158139365769208062317829899257048964500427 
0 4 0 5 -0.014673481612059594350605529200493037933483719826 
0 4 0 6 0.023094062346156095377747163865933544002473354340 
0 4 1 0 0.024259367393451143624094612505359691567718982697 
0 4 1 1 -0.002670000161294195078348634453391241549979895353 
0 4 1 2 0.018310064228641852873691320269244897644966840744 
0 4 1 3 -0.005616559487456388756465575085030650370754301548 
0 4 1 4 -0.006758789093825902198620081406943427282385528088 
0 4 1 5 0.011050869503836267468410703429526620311662554741 
0 4 1 6 0.000540200866795065640091344505435699829831719398 
0 4 2 0 -0.011065944870483328948962409299383580219000577927 
0 4 2 1 0.018310064228641852873691320269244897644966840744 
0 4 2 2 0.014055568561025995680258127151773805962875485420 
0 4 2 3 0.001090770593052025477787125851136806886643171310 
0 4 2 4 -0.001516039809596593165852418394479173002764582634 
0 4 2 5 0.011497259906075517690848819540860858978703618050 
0 4 2 6 0.008436821905799141152471065652207471430301666260 
0 4 3 0 0.015447260485387855760697206619624921586364507675 
0 4 3 1 -0.005616559487456388756465575085030650370754301548 
0 4 3 2 0.001090770593052025477787125851136806886643171310 
0 4 3 3 -0.004296818924252526067375512752732902299612760544 
0 4 3 4 -0.003779579626771095452603121955803544551599770784 
0 4 3 5 0.002294642426644422431025738262633240083232522011 
0 4 3 6 -0.003017480743590270422793686577733751619234681129 
0 4 4 0 0.021828158139365769208062317829899257048964500427 
0 4 4 1 -0.006758789093825902198620081406943427282385528088 
0 4 4 2 -0.001516039809596593165852418394479173002764582634 
0 4 4 3 -0.003779579626771095452603121955803544551599770784 
0 4 4 4 -0.006701719260670137463808959665811926242895424366 
0 4 4 5 -0.002583736557835857906850751675165156484581530094 
0 4 4 6 -0.005342971847535843768484120630546385655179619789 
0 4 5 0 -0.014673481612059594350605529200493037933483719826 
0 4 5 1 0.011050869503836267468410703429526620311662554741 
0 4 5 2 0.011497259906075517690848819540860858978703618050 
0 4 5 3 0.002294642426644422431025738262633240083232522011 
0 4 5 4 -0.002583736557835857906850751675165156484581530094 
0 4 5 5 0.014805145482335243384275358380364195909351110458 
0 4 5 6 0.011742747493373948894368474782368139130994677544 
0 4 6 0 0.023094062346156095377747163865933544002473354340 
0 4 6 1 0.000540200866795065640091344505435699829831719398 
0 4 6 2 0.008436821905799141152471065652207471430301666260 
0 4 6 3 -0.003017480743590270422793686577733751619234681129 
0 4 6 4 -0.005342971847535843768484120630546385655179619789 
0 4 6 5 0.011742747493373948894368474782368139130994677544 
0 4 6 6 -0.002677340269382013498988825972446647938340902328 
0 4 7 7 -0.000168774807383244876369740583577083725685952231 
0 4 7 8 0.002860172943647581317305750303603417705744504929 
0 4 7 9 0.004691023067758607646704493987499517970718443394 
0 4 7 10 0.003056999548256440595028760043305737781338393688 
0 4 8 7 0.002860172943647581317305750303603417705744504929 
0 4 8 8 0.000595982368888185731758966312554548494517803192 
0 4 8 9 0.001463752527922812258359686055086967826355248690 
0 4 8 10 0.002291284538558363038929233113094596774317324162 
0 4 9 7 0.004691023067758607646704493987499517970718443394 
0 4 9 8 0.001463752527922812258359686055086967826355248690 
0 4 9 9 -0.001440439649445221081264234541663427080493420362 
0 4 9 10 0.000405544995144650798415963954823837411822751164 
0 4 10 7 0.003056999548256440595028760043305737781338393688 
0 4 10 8 0.002291284538558363038929233113094596774317324162 
0 4 10 9 0.000405544995144650798415963954823837411822751164 
0 4 10 10 0.006367542857100712792861596511784227914176881313 
0 4 11 11 0.003107374335041957705977333503710724471602588892 
0 4 11 12 0.003953548107397954550212837432354717748239636421 
0 4 12 11 0.003953548107397954550212837432354717748239636421 
0 4 12 12 0.005015474168065967193463894346905362908728420734 
0 5 0 0 0.158777023921654603100250824354588985443115234375 
0 5 0 1 0.018248126266052294708330805406149011105298995972 
0 5 0 2 0.035437351510311632107885770892607979476451873779 
0 5 0 3 -0.003938755190516571649816945921429578447714447975 
0 5 0 4 -0.014673481612059592615882053223685943521559238434 
0 5 0 5 0.042543327351225353194497103004323435015976428986 
0 5 0 6 0.010750084858468990367530437879395321942865848541 
0 5 1 0 0.018248126266052294708330805406149011105298995972 
0 5 1 1 0.016452082086982417613585383264762640465050935745 
0 5 1 2 -0.023604604014998920025192319371853955090045928955 
0 5 1 3 0.013032193537286518303375260074972175061702728271 
0 5 1 4 0.014787501338977330350710204243114276323467493057 
0 5 1 5 -0.013034155572828488162118176774129096884280443192 
0 5 1 6 0.010005924598000145303577923527882376220077276230 
0 5 2 0 0.035437351510311632107885770892607979476451873779 
0 5 2 1 -0.023604604014998920025192319371853955090045928955 
0 5 2 2 -0.012560965512865968768396740529169619549065828323 
0 5 2 3 -0.002907083516144524232283075093619117978960275650 
0 5 2 4 -0.001453086505423714300255788600679807132109999657 
0 5 2 5 -0.007422964122124580191308673704497778089717030525 
0 5 2 6 -0.010808914323672366014639223408266843762248754501 
0 5 3 0 -0.003938755190516571649816945921429578447714447975 
0 5 3 1 0.013032193537286518303375260074972175061702728271 
0 5 3 2 -0.002907083516144524232283075093619117978960275650 
0 5 3 3 0.009091772998664185770345547155102394754067063332 
0 5 3 4 0.009298129760389604175907507510601135436445474625 
0 5 3 5 -0.005129966417210514093016904269006772665306925774 
0 5 3 6 0.009015322495136056379916311698252684436738491058 
0 5 4 0 -0.014673481612059592615882053223685943521559238434 
0 5 4 1 0.014787501338977330350710204243114276323467493057 
0 5 4 2 -0.001453086505423714300255788600679807132109999657 
0 5 4 3 0.009298129760389604175907507510601135436445474625 
0 5 4 4 0.015591706814122677574041553327788278693333268166 
0 5 4 5 -0.001029088983503544498313009292189690313534811139 
0 5 4 6 0.012961980301753679017950915408619039226323366165 
0 5 5 0 0.042543327351225353194497103004323435015976428986 
0 5 5 1 -0.013034155572828488162118176774129096884280443192 
0 5 5 2 -0.007422964122124580191308673704497778089717030525 
0 5 5 3 -0.005129966417210514093016904269006772665306925774 
0 5 5 4 -0.001029088983503544498313009292189690313534811139 
0 5 5 5 -0.010080220802863335688437373960368859115988016129 
0 5 5 6 -0.015653018704259405446954644958168501034379005432 
0 5 6 0 0.010750084858468990367530437879395321942865848541 
0 5 6 1 0.010005924598000145303577923527882376220077276230 
0 5 6 2 -0.010808914323672366014639223408266843762248754501 
0 5 6 3 0.009015322495136056379916311698252684436738491058 
0 5 6 4 0.012961980301753679017950915408619039226323366165 
0 5 6 5 -0.015653018704259405446954644958168501034379005432 
0 5 6 6 0.013527233583399493263565993572683510137721896172 
0 5 7 7 0.006059009231988419542924706462372341775335371494 
0 5 7 8 -0.000260083469869333040735970286050360300578176975 
0 5 7 9 -0.005115550032929209664511738253622752381488680840 
0 5 7 10 0.004501556586249242167263595604254078352823853493 
0 5 8 7 -0.000260083469869333040735970286050360300578176975 
0 5 8 8 0.001857911316304627306200680791903323552105575800 
0 5 8 9 -0.000824271768478133134809560100819680883432738483 
0 5 8 10 0.002938293663623328406259149758739113167393952608 
0 5 9 7 -0.005115550032929209664511738253622752381488680840 
0 5 9 8 -0.000824271768478133134809560100819680883432738483 
0 5 9 9 0.002931730469443748210434108614208525978028774261 
0 5 9 10 0.002328429545012247921242920511986085330136120319 
0 5 10 7 0.004501556586249242167263595604254078352823853493 
0 5 10 8 0.002938293663623328406259149758739113167393952608 
0 5 10 9 0.002328429545012247921242920511986085330136120319 
0 5 10 10 0.005742676718642630157019013381614058744162321091 
0 5 11 11 0.003475651575099817768704779652466640982311218977 
0 5 11 12 0.004444899134406102986227793394391483161598443985 
0 5 12 11 0.004444899134406102986227793394391483161598443985 
0 5 12 12 0.005606656306279084352184316486500392784364521503 
0 6 0 0 0.355179314169113746757489025185350328683853149414 
0 6 0 1 0.053429827183618570918266499347737408243119716644 
0 6 0 2 0.010830086666757297864105424878289340995252132416 
0 6 0 3 0.021479029003161599631344103045194060541689395905 
0 6 0 4 0.023094062346156091908300211912319355178624391556 
0 6 0 5 0.010750084858468986898083485925781133119016885757 
0 6 0 6 0.045770978023841384085823591476582805626094341278 
0 6 1 0 0.053429827183618570918266499347737408243119716644 
0 6 1 1 0.009353907279521976592118193138958304189145565033 
0 6 1 2 0.009193509230327814862882007673761108890175819397 
0 6 1 3 0.001996244251774249335584787701236564316786825657 
0 6 1 4 0.001772326988870699584349699406971012649592012167 
0 6 1 5 0.006705828196584939782098899740958586335182189941 
0 6 1 6 0.008907173153997624548416922607430024072527885437 
0 6 2 0 0.010830086666757297864105424878289340995252132416 
0 6 2 1 0.009193509230327814862882007673761108890175819397 
0 6 2 2 0.011741566698839456944769565893693652469664812088 
0 6 2 3 -0.000729605109557415580645578501162162865512073040 
0 6 2 4 -0.003744934509836295687124074760276926099322736263 
0 6 2 5 0.012108682774825556965891948379976383876055479050 
0 6 2 6 0.004401619969813323242358027442833190434612333775 
0 6 3 0 0.021479029003161599631344103045194060541689395905 
0 6 3 1 0.001996244251774249335584787701236564316786825657 
0 6 3 2 -0.000729605109557415580645578501162162865512073040 
0 6 3 3 0.000771298729318467936669212470235379441874101758 
0 6 3 4 0.001780863314252019305797269943525407143170014024 
0 6 3 5 -0.000701404092206860292624259756166793522424995899 
0 6 3 6 0.002641520507060488281297905288624860986601561308 
0 6 4 0 0.023094062346156091908300211912319355178624391556 
0 6 4 1 0.001772326988870699584349699406971012649592012167 
0 6 4 2 -0.003744934509836295687124074760276926099322736263 
0 6 4 3 0.001780863314252019305797269943525407143170014024 
0 6 4 4 0.002301904227739834385424444462842075154185295105 
0 6 4 5 -0.005073655155518899673161570262891473248600959778 
0 6 4 6 0.002290489393588389464145871343703220190946012735 
0 6 5 0 0.010750084858468986898083485925781133119016885757 
0 6 5 1 0.006705828196584939782098899740958586335182189941 
0 6 5 2 0.012108682774825556965891948379976383876055479050 
0 6 5 3 -0.000701404092206860292624259756166793522424995899 
0 6 5 4 -0.005073655155518899673161570262891473248600959778 
0 6 5 5 0.015163596986929015614231630593167210463434457779 
0 6 5 6 0.005478179013153459779583709376993283513002097607 
0 6 6 0 0.045770978023841384085823591476582805626094341278 
0 6 6 1 0.008907173153997624548416922607430024072527885437 
0 6 6 2 0.004401619969813323242358027442833190434612333775 
0 6 6 3 0.002641520507060488281297905288624860986601561308 
0 6 6 4 0.002290489393588389464145871343703220190946012735 
0 6 6 5 0.005478179013153459779583709376993283513002097607 
0 6 6 6 0.007052223193193579015014549327133863698691129684 
0 6 7 7 0.004309647063591305615748439095114008523523807526 
0 6 7 8 0.004088236910642749875888224408981841406784951687 
0 6 7 9 0.003165090339025368286474115819828512030653655529 
0 6 7 10 0.008381520905554509792700912385043920949101448059 
0 6 8 7 0.004088236910642749875888224408981841406784951687 
0 6 8 8 0.002336367356212586555291865764161229890305548906 
0 6 8 9 0.001549561051744222702625242149565565341617912054 
0 6 8 10 0.005913624621988245767811864794794018962420523167 
0 6 9 7 0.003165090339025368286474115819828512030653655529 
0 6 9 8 0.001549561051744222702625242149565565341617912054 
0 6 9 9 -0.000041716284436848658986884963439933926565572619 
0 6 9 10 0.002525755195653625433116484799711543018929660320 
0 6 10 7 0.008381520905554509792700912385043920949101448059 
0 6 10 8 0.005913624621988245767811864794794018962420523167 
0 6 10 9 0.002525755195653625433116484799711543018929660320 
0 6 10 10 0.014571003125392736898824352920200908556580543518 
0 6 11 11 0.008780954094989698935358468645517859840765595436 
0 6 11 12 0.010662464612660434506996587344929139362648129463 
0 6 12 11 0.010662464612660434506996587344929139362648129463 
0 6 12 12 0.013485038933461977392336272885131620569154620171 
1 0 0 0 0.429742309766367902579276005781139247119426727295 
1 0 0 1 0.063597487420653617262722434588795294985175132751 
1 0 0 2 0.017351065952171808998150126512882707174867391586 
1 0 0 3 0.024004807447712009360607510188856394961476325989 
1 0 0 4 0.024259367393451088112943381247532670386135578156 
1 0 0 5 0.018248126266052266952755189777235500514507293701 
1 0 0 6 0.053429827183618466834857940739311743527650833130 
1 0 1 0 0.063597487420653617262722434588795294985175132751 
1 0 1 1 0.013736520873316782065387542388634756207466125488 
1 0 1 2 0.008328830643515826304135174495968385599553585052 
1 0 1 3 0.004244425221928947895844164150958022219128906727 
1 0 1 4 0.004279379114653168725279641648739925585687160492 
1 0 1 5 0.006496481146894595576357644972631533164530992508 
1 0 1 6 0.012598256508718800109059010594592109555378556252 
1 0 2 0 0.017351065952171808998150126512882707174867391586 
1 0 2 1 0.008328830643515826304135174495968385599553585052 
1 0 2 2 0.013144096575813085658879231232276652008295059204 
1 0 2 3 -0.001434042373526477499173781282593154173810034990 
1 0 2 4 -0.005050521162209910958074132736328465398401021957 
1 0 2 5 0.014172384887227744074134072604920220328494906425 
1 0 2 6 0.003916050951987852177249571639094938291236758232 
1 0 3 0 0.024004807447712009360607510188856394961476325989 
1 0 3 1 0.004244425221928947895844164150958022219128906727 
1 0 3 2 -0.001434042373526477499173781282593154173810034990 
1 0 3 3 0.002181157719420838414503549529399606399238109589 
1 0 3 4 0.003488244109287272961411607852255656325723975897 
1 0 3 5 -0.001632711290783296111117639526355560519732534885 
1 0 3 6 0.004548488728064171288112405022729944903403520584 
1 0 4 0 0.024259367393451088112943381247532670386135578156 
1 0 4 1 0.004279379114653168725279641648739925585687160492 
1 0 4 2 -0.005050521162209910958074132736328465398401021957 
1 0 4 3 0.003488244109287272961411607852255656325723975897 
1 0 4 4 0.004828081525326658601793283764891384635120630264 
1 0 4 5 -0.006503610593313564891548850255276192910969257355 
1 0 4 6 0.004666224753589106981344070135264701093547046185 
1 0 5 0 0.018248126266052266952755189777235500514507293701 
1 0 5 1 0.006496481146894595576357644972631533164530992508 
1 0 5 2 0.014172384887227744074134072604920220328494906425 
1 0 5 3 -0.001632711290783296111117639526355560519732534885 
1 0 5 4 -0.006503610593313564891548850255276192910969257355 
1 0 5 5 0.017324252983788319959490564770021592266857624054 
1 0 5 6 0.004741905955487490595401389725793706020340323448 
1 0 6 0 0.053429827183618466834857940739311743527650833130 
1 0 6 1 0.012598256508718800109059010594592109555378556252 
1 0 6 2 0.003916050951987852177249571639094938291236758232 
1 0 6 3 0.004548488728064171288112405022729944903403520584 
1 0 6 4 0.004666224753589106981344070135264701093547046185 
1 0 6 5 0.004741905955487490595401389725793706020340323448 
1 0 6 6 0.010441047854214539555850471685971569968387484550 
1 0 7 7 0.006380040050841850711449421140741833369247615337 
1 0 7 8 0.005297876170860052642830329006073952768929302692 
1 0 7 9 0.003460278335466633430062000087445994722656905651 
1 0 7 10 0.011323870194848819140109874581412441330030560493 
1 0 8 7 0.005297876170860052642830329006073952768929302692 
1 0 8 8 0.003271677940466269710051427921371214324608445168 
1 0 8 9 0.001860687249355862538796602123625234526116400957 
1 0 8 10 0.007888988647124747441430336891698971157893538475 
1 0 9 7 0.003460278335466633430062000087445994722656905651 
1 0 9 8 0.001860687249355862538796602123625234526116400957 
1 0 9 9 0.000211100568260212304548539830051367971464060247 
1 0 9 10 0.003502818635834716899657426125713755027391016483 
1 0 10 7 0.011323870194848819140109874581412441330030560493 
1 0 10 8 0.007888988647124747441430336891698971157893538475 
1 0 10 9 0.003502818635834716899657426125713755027391016483 
1 0 10 10 0.018835439270988380000559914151381235569715499878 
1 0 11 11 0.011475148011738961484340393326419871300458908081 
1 0 11 12 0.013963125193134078017020982542817364446818828583 
1 0 12 11 0.013963125193134078017020982542817364446818828583 
1 0 12 12 0.017258133116624101155434090060225571505725383759 
1 1 0 0 1.042246060791717887639151740586385130882263183594 
1 1 0 1 0.013736520873316736962577166991650301497429609299 
1 1 0 2 0.015323349387100729940280885443826264236122369766 
1 1 0 3 0.000656790159198422651698479057813528925180435181 
1 1 0 4 -0.002670000161294192042582551493978826329112052917 
1 1 0 5 0.016452082086982424552479287171991018112748861313 
1 1 0 6 0.009353907279522066797738943932927213609218597412 
1 1 1 0 0.013736520873316736962577166991650301497429609299 
1 1 1 1 0.749139977297560211155769138713367283344268798828 
1 1 1 2 -0.013304594719687590220758011128054931759834289551 
1 1 1 3 0.116874641721798511184715607669204473495483398438 
1 1 1 4 0.065091843943890115298245291342027485370635986328 
1 1 1 5 0.020359685137818370193052430749958148226141929626 
1 1 1 6 0.113732980596027932751468370042857713997364044189 
1 1 2 0 0.015323349387100729940280885443826264236122369766 
1 1 2 1 -0.013304594719687590220758011128054931759834289551 
1 1 2 2 0.663566193069587972885869930905755609273910522461 
1 1 2 3 -0.076652275364809785429542898782528936862945556641 
1 1 2 4 -0.059204876953418361651415580126922577619552612305 
1 1 2 5 0.154768725190751049725079724339593667536973953247 
1 1 2 6 0.018880193573327430645036884016008116304874420166 
1 1 3 0 0.000656790159198422651698479057813528925180435181 
1 1 3 1 0.116874641721798511184715607669204473495483398438 
1 1 3 2 -0.076652275364809785429542898782528936862945556641 
1 1 3 3 0.406179013727849147485926550871226936578750610352 
1 1 3 4 0.136037172397247080324333978751383256167173385620 
1 1 3 5 -0.036728359015523341646325405918105388991534709930 
1 1 3 6 0.094383079082086734912238057404465507715940475464 
1 1 4 0 -0.002670000161294192042582551493978826329112052917 
1 1 4 1 0.065091843943890115298245291342027485370635986328 
1 1 4 2 -0.059204876953418361651415580126922577619552612305 
1 1 4 3 0.136037172397247080324333978751383256167173385620 
1 1 4 4 0.573331385240641200340405703173018991947174072266 
1 1 4 5 -0.055963989550935559769140326125125284306704998016 
1 1 4 6 0.047079990346052036365165349707240238785743713379 
1 1 5 0 0.016452082086982424552479287171991018112748861313 
1 1 5 1 0.020359685137818370193052430749958148226141929626 
1 1 5 2 0.154768725190751049725079724339593667536973953247 
1 1 5 3 -0.036728359015523341646325405918105388991534709930 
1 1 5 4 -0.055963989550935559769140326125125284306704998016 
1 1 5 5 0.561378819230353931502008890674915164709091186523 
1 1 5 6 -0.008466344354922456655332396735502697993069887161 
1 1 6 0 0.009353907279522066797738943932927213609218597412 
1 1 6 1 0.113732980596027932751468370042857713997364044189 
1 1 6 2 0.018880193573327430645036884016008116304874420166 
1 1 6 3 0.094383079082086734912238057404465507715940475464 
1 1 6 4 0.047079990346052036365165349707240238785743713379 
1 1 6 5 -0.008466344354922456655332396735502697993069887161 
1 1 6 6 0.595614896687367001426594015356386080384254455566 
1 1 7 7 0.658629926015078859258267129916930571198463439941 
1 1 7 8 0.136312849697738047716200071590719744563102722168 
1 1 7 9 -0.009316220767597332974574442232551518827676773071 
1 1 7 10 0.132610545285630515577324217701971065253019332886 
1 1 8 7 0.136312849697738047716200071590719744563102722168 
1 1 8 8 0.408428269193296944461479824894922785460948944092 
1 1 8 9 0.095349657960606695739080862495029577985405921936 
1 1 8 10 0.141175741937503484990656943409703671932220458984 
1 1 9 7 -0.009316220767597332974574442232551518827676773071 
1 1 9 8 0.095349657960606695739080862495029577985405921936 
1 1 9 9 0.490385220714914749073898292408557608723640441895 
1 1 9 10 0.047650073313378060735345798093476332724094390869 
1 1 10 7 0.132610545285630515577324217701971065253019332886 
1 1 10 8 0.141175741937503484990656943409703671932220458984 
1 1 10 9 0.047650073313378060735345798093476332724094390869 
1 1 10 10 0.613388752089739641704113637388218194246292114258 
1 1 11 11 0.711869991337545693355082221387419849634170532227 
1 1 11 12 0.188511407791280394263822017819620668888092041016 
1 1 12 11 0.188511407791280394263822017819620668888092041016 
1 1 12 12 0.609680163398540697627936424396466463804244995117 
1 2 0 0 0.095174043637544558649210557632613927125930786133 
1 2 0 1 0.008328830643515814161070842658318724716082215309 
1 2 0 2 -0.021360908938007527185787282064666214864701032639 
1 2 0 3 0.011287177110317733047528676593174168374389410019 
1 2 0 4 0.018310064228641856343138272222859086468815803528 
1 2 0 5 -0.023604604014998923494639271325468143913894891739 
1 2 0 6 0.009193509230327853026798479163517185952514410019 
1 2 1 0 0.008328830643515814161070842658318724716082215309 
1 2 1 1 -0.013304594719687546852671111707877571461722254753 
1 2 1 2 0.117655411343867463691559294147737091407179832458 
1 2 1 3 -0.020372568010557909334856674377078888937830924988 
1 2 1 4 -0.006876470898261956982144837979831208940595388412 
1 2 1 5 0.031909044390937772728289445467453333549201488495 
1 2 1 6 0.010071015517738375610878875932030496187508106232 
1 2 2 0 -0.021360908938007527185787282064666214864701032639 
1 2 2 1 0.117655411343867463691559294147737091407179832458 
1 2 2 2 0.081801096057895303359508432095026364549994468689 
1 2 2 3 -0.014552636101822544190120822804601630195975303650 
1 2 2 4 -0.025578910783321154309710721008741529658436775208 
1 2 2 5 0.034897886605538455673247710819850908592343330383 
1 2 2 6 0.012055244748611942950944353469822090119123458862 
1 2 3 0 0.011287177110317733047528676593174168374389410019 
1 2 3 1 -0.020372568010557909334856674377078888937830924988 
1 2 3 2 -0.014552636101822544190120822804601630195975303650 
1 2 3 3 -0.035384104289171991464257871484733186662197113037 
1 2 3 4 -0.019266605582579553190836207932079560123383998871 
1 2 3 5 0.021257259863329977522816705004515824839472770691 
1 2 3 6 -0.000643951404108576708207323235910735093057155609 
1 2 4 0 0.018310064228641856343138272222859086468815803528 
1 2 4 1 -0.006876470898261956982144837979831208940595388412 
1 2 4 2 -0.025578910783321154309710721008741529658436775208 
1 2 4 3 -0.019266605582579553190836207932079560123383998871 
1 2 4 4 -0.070490310872916683848643515375442802906036376953 
1 2 4 5 -0.027609626641891139159357138055383984465152025223 
1 2 4 6 -0.009787862309422853263063402096122445072978734970 
1 2 5 0 -0.023604604014998923494639271325468143913894891739 
1 2 5 1 0.031909044390937772728289445467453333549201488495 
1 2 5 2 0.034897886605538455673247710819850908592343330383 
1 2 5 3 0.021257259863329977522816705004515824839472770691 
1 2 5 4 -0.027609626641891139159357138055383984465152025223 
1 2 5 5 0.074426846362370305265621084345184499397873878479 
1 2 5 6 0.068133418681891239065961940468696411699056625366 
1 2 6 0 0.009193509230327853026798479163517185952514410019 
1 2 6 1 0.010071015517738375610878875932030496187508106232 
1 2 6 2 0.012055244748611942950944353469822090119123458862 
1 2 6 3 -0.000643951404108576708207323235910735093057155609 
1 2 6 4 -0.009787862309422853263063402096122445072978734970 
1 2 6 5 0.068133418681891239065961940468696411699056625366 
1 2 6 6 -0.020356018712191330244376530345107312314212322235 
1 2 7 7 -0.006289933293600373336029729642859820160083472729 
1 2 7 8 0.039322648566686560500649250116111943498253822327 
1 2 7 9 0.063328599064763180237491724255960434675216674805 
1 2 7 10 0.018747807297361182565786918985395459458231925964 
1 2 8 7 0.039322648566686560500649250116111943498253822327 
1 2 8 8 -0.007841764758519532974023746874081552959978580475 
1 2 8 9 0.009243848429673618555257874618291680235415697098 
1 2 8 10 0.010697565907755036962445416293121525086462497711 
1 2 9 7 0.063328599064763180237491724255960434675216674805 
1 2 9 8 0.009243848429673618555257874618291680235415697098 
1 2 9 9 -0.036381362126200841866641155775141669437289237976 
1 2 9 10 -0.018927565413809268463074531041456793900579214096 
1 2 10 7 0.018747807297361182565786918985395459458231925964 
1 2 10 8 0.010697565907755036962445416293121525086462497711 
1 2 10 9 -0.018927565413809268463074531041456793900579214096 
1 2 10 10 0.041347482054623740932441933182417415082454681396 
1 2 11 11 0.047262281633882644027444541734439553692936897278 
1 2 11 12 0.025281591704481666538217865536353201605379581451 
1 2 12 11 0.025281591704481666538217865536353201605379581451 
1 2 12 12 0.035565170389409851703366172159803682006895542145 
1 3 0 0 0.223379813905291157993815431836992502212524414062 
1 3 0 1 0.004244425221928926211800714440869342070072889328 
1 3 0 2 0.011881190495848788918342719966858567204326391220 
1 3 0 3 -0.002317430755173533613033853839624498505145311356 
1 3 0 4 -0.005616559487456419114126404679154802579432725906 
1 3 0 5 0.013032193537286511364481356167743797414004802704 
1 3 0 6 0.001996244251774137445920587197178974747657775879 
1 3 1 0 0.004244425221928926211800714440869342070072889328 
1 3 1 1 0.116874641721798525062503415483661228790879249573 
1 3 1 2 -0.020372568010557867701493250933708623051643371582 
1 3 1 3 0.047245838229894920878848552092676982283592224121 
1 3 1 4 0.041648021477718566440984204746200703084468841553 
1 3 1 5 -0.002138314598950336476584910272435990918893367052 
1 3 1 6 0.040402722961768749998512362253677565604448318481 
1 3 2 0 0.011881190495848788918342719966858567204326391220 
1 3 2 1 -0.020372568010557867701493250933708623051643371582 
1 3 2 2 0.072065029339525535356791863250691676512360572815 
1 3 2 3 -0.027836358396717622576410633428167784586548805237 
1 3 2 4 -0.029367158548903413151087704591191140934824943542 
1 3 2 5 0.038881136266739405038528332170244539156556129456 
1 3 2 6 -0.002077410033629066565818988010505563579499721527 
1 3 3 0 -0.002317430755173533613033853839624498505145311356 
1 3 3 1 0.047245838229894920878848552092676982283592224121 
1 3 3 2 -0.027836358396717622576410633428167784586548805237 
1 3 3 3 0.026587255142033527910427892493316903710365295410 
1 3 3 4 0.032693962020729994133461104866000823676586151123 
1 3 3 5 -0.015369729108549903817682036333280848339200019836 
1 3 3 6 0.030345378958517313372489354605932021513581275940 
1 3 4 0 -0.005616559487456419114126404679154802579432725906 
1 3 4 1 0.041648021477718566440984204746200703084468841553 
1 3 4 2 -0.029367158548903413151087704591191140934824943542 
1 3 4 3 0.032693962020729994133461104866000823676586151123 
1 3 4 4 0.052873818153853086032611940936476457864046096802 
1 3 4 5 -0.024059035821276029271098551021168532315641641617 
1 3 4 6 0.029002938254730863815167296593244827818125486374 
1 3 5 0 0.013032193537286511364481356167743797414004802704 
1 3 5 1 -0.002138314598950336476584910272435990918893367052 
1 3 5 2 0.038881136266739405038528332170244539156556129456 
1 3 5 3 -0.015369729108549903817682036333280848339200019836 
1 3 5 4 -0.024059035821276029271098551021168532315641641617 
1 3 5 5 0.053097489131037393927936562931790831498801708221 
1 3 5 6 -0.011124250547967735880394712921770405955612659454 
1 3 6 0 0.001996244251774137445920587197178974747657775879 
1 3 6 1 0.040402722961768749998512362253677565604448318481 
1 3 6 2 -0.002077410033629066565818988010505563579499721527 
1 3 6 3 0.030345378958517313372489354605932021513581275940 
1 3 6 4 0.029002938254730863815167296593244827818125486374 
1 3 6 5 -0.011124250547967735880394712921770405955612659454 
1 3 6 6 0.074430964065385615824332887768832733854651451111 
1 3 7 7 0.074382620086006531745503878028102917596697807312 
1 3 7 8 0.040040231639949241948528424472897313535213470459 
1 3 7 9 0.007500017141065998607651899021675490075722336769 
1 3 7 10 0.048501204864564495533585386510821990668773651123 
1 3 8 7 0.040040231639949241948528424472897313535213470459 
1 3 8 8 0.020635402521723317931234831235087767709046602249 
1 3 8 9 0.012775290470265467102084500083947204984724521637 
1 3 8 10 0.036412426797266389533191954797075595706701278687 
1 3 9 7 0.007500017141065998607651899021675490075722336769 
1 3 9 8 0.012775290470265467102084500083947204984724521637 
1 3 9 9 0.020723968013620794326179463951120851561427116394 
1 3 9 10 0.013142782329083661785329439908309723250567913055 
1 3 10 7 0.048501204864564495533585386510821990668773651123 
1 3 10 8 0.036412426797266389533191954797075595706701278687 
1 3 10 9 0.013142782329083661785329439908309723250567913055 
1 3 10 10 0.075317756928940660099414117212290875613689422607 
1 3 11 11 0.105361337510783095727795455331943230703473091125 
1 3 11 12 0.058518192078955089119318699886207468807697296143 
1 3 12 11 0.058518192078955089119318699886207468807697296143 
1 3 12 12 0.080287306491203788705313115769968135282397270203 
1 4 0 0 0.181594987173084976284087588283000513911247253418 
1 4 0 1 0.004279379114653189541961353370425058528780937195 
1 4 0 2 0.013269565771547205124125667907719616778194904327 
1 4 0 3 -0.002837211743445856165779517255032260436564683914 
1 4 0 4 -0.006758789093825890922917487557697313604876399040 
1 4 0 5 0.014787501338977323411816300335885898675769567490 
1 4 0 6 0.001772326988870745120840943798157240962609648705 
1 4 1 0 0.004279379114653189541961353370425058528780937195 
1 4 1 1 0.065091843943890184687184330414311261847615242004 
1 4 1 2 -0.006876470898261986472443929585551813943311572075 
1 4 1 3 0.041648021477718497052045165673916926607489585876 
1 4 1 4 0.059822594996923578181124980801541823893785476685 
1 4 1 5 -0.002044685445752363484733793441705529403407126665 
1 4 1 6 0.031346910437911726377002707977226236835122108459 
1 4 2 0 0.013269565771547205124125667907719616778194904327 
1 4 2 1 -0.006876470898261986472443929585551813943311572075 
1 4 2 2 0.033318969485932409257955555403896141797304153442 
1 4 2 3 -0.027272287028023374511054299773604725487530231476 
1 4 2 4 -0.043815502076433081313222572816812316887080669403 
1 4 2 5 0.020695632599058683132042801844363566488027572632 
1 4 2 6 -0.006169489077865211897055974787917875801213085651 
1 4 3 0 -0.002837211743445856165779517255032260436564683914 
1 4 3 1 0.041648021477718497052045165673916926607489585876 
1 4 3 2 -0.027272287028023374511054299773604725487530231476 
1 4 3 3 0.009100881146174737146292699208061094395816326141 
1 4 3 4 0.012952881354542523234529838305206794757395982742 
1 4 3 5 -0.013850019949473175301379868074036494363099336624 
1 4 3 6 0.028698178742158915455195966615065117366611957550 
1 4 4 0 -0.006758789093825890922917487557697313604876399040 
1 4 4 1 0.059822594996923578181124980801541823893785476685 
1 4 4 2 -0.043815502076433081313222572816812316887080669403 
1 4 4 3 0.012952881354542523234529838305206794757395982742 
1 4 4 4 -0.017441199111818357636582987879592110402882099152 
1 4 4 5 -0.033416872023330185248468637837504502385854721069 
1 4 4 6 0.034747771082368525408234916085348231717944145203 
1 4 5 0 0.014787501338977323411816300335885898675769567490 
1 4 5 1 -0.002044685445752363484733793441705529403407126665 
1 4 5 2 0.020695632599058683132042801844363566488027572632 
1 4 5 3 -0.013850019949473175301379868074036494363099336624 
1 4 5 4 -0.033416872023330185248468637837504502385854721069 
1 4 5 5 0.030935127498280517305273562556067190598696470261 
1 4 5 6 -0.006620827093945381124073801260010441183112561703 
1 4 6 0 0.001772326988870745120840943798157240962609648705 
1 4 6 1 0.031346910437911726377002707977226236835122108459 
1 4 6 2 -0.006169489077865211897055974787917875801213085651 
1 4 6 3 0.028698178742158915455195966615065117366611957550 
1 4 6 4 0.034747771082368525408234916085348231717944145203 
1 4 6 5 -0.006620827093945381124073801260010441183112561703 
1 4 6 6 0.046166024698294991224223338122101267799735069275 
1 4 7 7 0.014540220756304287827442855984827474458143115044 
1 4 7 8 0.034708045474998977519831555582641158252954483032 
1 4 7 9 0.038629706047235708166187606593666714616119861603 
1 4 7 10 0.044736079718389776260778489813674241304397583008 
1 4 8 7 0.034708045474998977519831555582641158252954483032 
1 4 8 8 0.000531966152507092060464088945082039572298526764 
1 4 8 9 -0.002677192663887679319190127102956466842442750931 
1 4 8 10 0.023103770956281181880864750155524234287440776825 
1 4 9 7 0.038629706047235708166187606593666714616119861603 
1 4 9 8 -0.002677192663887679319190127102956466842442750931 
1 4 9 9 -0.041182011373516236307779081471380777657032012939 
1 4 9 10 -0.002619725668922618516676337208082259166985750198 
1 4 10 7 0.044736079718389776260778489813674241304397583008 
1 4 10 8 0.023103770956281181880864750155524234287440776825 
1 4 10 9 -0.002619725668922618516676337208082259166985750198 
1 4 10 10 0.045813740645086156733079008063214132562279701233 
1 4 11 11 0.075930916601963188705681773171818349510431289673 
1 4 11 12 0.045815464620745684209968118238975876010954380035 
1 4 12 11 0.045815464620745684209968118238975876010954380035 
1 4 12 12 0.060758587303771018073295095973662682808935642242 
1 5 0 0 0.091530250690668044089015609188209054991602897644 
1 5 0 1 0.006496481146894569555505505320525116985663771629 
1 5 0 2 -0.011354158385922121995981193265379260992631316185 
1 5 0 3 0.006974884958685789379528863207724498352035880089 
1 5 0 4 0.011050869503836246651728991707841487368568778038 
1 5 0 5 -0.013034155572828489896841652750936191296204924583 
1 5 0 6 0.006705828196584968405036253358275644131936132908 
1 5 1 0 0.006496481146894569555505505320525116985663771629 
1 5 1 1 0.020359685137818325090242055352973693516105413437 
1 5 1 2 0.031909044390937731094926022024083067663013935089 
1 5 1 3 -0.002138314598950401962396128396903804969042539597 
1 5 1 4 -0.002044685445752328356583404911361867561936378479 
1 5 1 5 0.030132818299636196512913954848045250400900840759 
1 5 1 6 0.004529655950662408656071100665485573699697852135 
1 5 2 0 -0.011354158385922121995981193265379260992631316185 
1 5 2 1 0.031909044390937731094926022024083067663013935089 
1 5 2 2 0.045996312855207457936934645204019034281373023987 
1 5 2 3 0.000732906211962470327536678382784884888678789139 
1 5 2 4 -0.012746542971587700512903218452720466302707791328 
1 5 2 5 0.033316946635227037698534502396796597167849540710 
1 5 2 6 0.024683886510978289563489340707747032865881919861 
1 5 3 0 0.006974884958685789379528863207724498352035880089 
1 5 3 1 -0.002138314598950401962396128396903804969042539597 
1 5 3 2 0.000732906211962470327536678382784884888678789139 
1 5 3 3 0.001889169270364418791452454371437852387316524982 
1 5 3 4 -0.003774901140586399937715267327575929812155663967 
1 5 3 5 -0.006129342322303710927089426263592031318694353104 
1 5 3 6 -0.000924233698163819724497036744992328749503940344 
1 5 4 0 0.011050869503836246651728991707841487368568778038 
1 5 4 1 -0.002044685445752328356583404911361867561936378479 
1 5 4 2 -0.012746542971587700512903218452720466302707791328 
1 5 4 3 -0.003774901140586399937715267327575929812155663967 
1 5 4 4 -0.006662728285714705073194963347305019851773977280 
1 5 4 5 -0.008471114058179261829817363604888669215142726898 
1 5 4 6 -0.004725546504314966263227137943658817675895988941 
1 5 5 0 -0.013034155572828489896841652750936191296204924583 
1 5 5 1 0.030132818299636196512913954848045250400900840759 
1 5 5 2 0.033316946635227037698534502396796597167849540710 
1 5 5 3 -0.006129342322303710927089426263592031318694353104 
1 5 5 4 -0.008471114058179261829817363604888669215142726898 
1 5 5 5 0.032100838750123317222318064523278735578060150146 
1 5 5 6 0.013101428486449870000618567189576424425467848778 
1 5 6 0 0.006705828196584968405036253358275644131936132908 
1 5 6 1 0.004529655950662408656071100665485573699697852135 
1 5 6 2 0.024683886510978289563489340707747032865881919861 
1 5 6 3 -0.000924233698163819724497036744992328749503940344 
1 5 6 4 -0.004725546504314966263227137943658817675895988941 
1 5 6 5 0.013101428486449870000618567189576424425467848778 
1 5 6 6 0.018237582434287632343616891716919781174510717392 
1 5 7 7 0.013946910093444666797757314213868085062131285667 
1 5 7 8 0.013303363380715202760051774077965092146769165993 
1 5 7 9 0.013576541641090952156067928058291727211326360703 
1 5 7 10 0.022033102288960729198130650274833897128701210022 
1 5 8 7 0.013303363380715202760051774077965092146769165993 
1 5 8 8 0.011418448260963802096124020124534581555053591728 
1 5 8 9 0.004565777352953017537151580995669064577668905258 
1 5 8 10 0.012935989757618506293401772211382194655016064644 
1 5 9 7 0.013576541641090952156067928058291727211326360703 
1 5 9 8 0.004565777352953017537151580995669064577668905258 
1 5 9 9 -0.005423095277887955006912434896548802498728036880 
1 5 9 10 0.008577837278620442304499782437687827041372656822 
1 5 10 7 0.022033102288960729198130650274833897128701210022 
1 5 10 8 0.012935989757618506293401772211382194655016064644 
1 5 10 9 0.008577837278620442304499782437687827041372656822 
1 5 10 10 0.021685676797028412970957944594374566804617643356 
1 5 11 11 0.039720966311673107373980684542402741499245166779 
1 5 11 12 0.025035126616614493400003738088344107381999492645 
1 5 12 11 0.025035126616614493400003738088344107381999492645 
1 5 12 12 0.030634030650746133656037173409458773676306009293 
1 6 0 0 0.344148095489690053483400333789177238941192626953 
1 6 0 1 0.012598256508718756740972111174414749257266521454 
1 6 0 2 0.009172176193647761655025618665604270063340663910 
1 6 0 3 0.002440100672754540178654991677831276319921016693 
1 6 0 4 0.000540200866795067374814820482242794241756200790 
1 6 0 5 0.010005924598000103670214500084512110333889722824 
1 6 0 6 0.008907173153997516995561412045390170533210039139 
1 6 1 0 0.012598256508718756740972111174414749257266521454 
1 6 1 1 0.113732980596027835606953715341660426929593086243 
1 6 1 2 0.010071015517738274996917269277219020295888185501 
1 6 1 3 0.040402722961768458564968398150085704401135444641 
1 6 1 4 0.031346910437911691682533188441084348596632480621 
1 6 1 5 0.004529655950662369624792891187325949431397020817 
1 6 1 6 0.072797529050745074519213062558264937251806259155 
1 6 2 0 0.009172176193647761655025618665604270063340663910 
1 6 2 1 0.010071015517738274996917269277219020295888185501 
1 6 2 2 0.096029683089000381079891610625054454430937767029 
1 6 2 3 -0.026366772514650846370720671529852552339434623718 
1 6 2 4 -0.032996273424960108344716758210779516957700252533 
1 6 2 5 0.071957805386931056323973621147160883992910385132 
1 6 2 6 -0.004144054583970886718180537400257890112698078156 
1 6 3 0 0.002440100672754540178654991677831276319921016693 
1 6 3 1 0.040402722961768458564968398150085704401135444641 
1 6 3 2 -0.026366772514650846370720671529852552339434623718 
1 6 3 3 0.029382011228115068046662372580613009631633758545 
1 6 3 4 0.038089344726800714036052397659659618511795997620 
1 6 3 5 -0.014525735634486516834051883506617741659283638000 
1 6 3 6 0.028279284061141055778287878297305724117904901505 
1 6 4 0 0.000540200866795067374814820482242794241756200790 
1 6 4 1 0.031346910437911691682533188441084348596632480621 
1 6 4 2 -0.032996273424960108344716758210779516957700252533 
1 6 4 3 0.038089344726800714036052397659659618511795997620 
1 6 4 4 0.064696411087458521871340622055868152529001235962 
1 6 4 5 -0.032033900969773473899060434177954448387026786804 
1 6 4 6 0.032138258319646964555893475790071533992886543274 
1 6 5 0 0.010005924598000103670214500084512110333889722824 
1 6 5 1 0.004529655950662369624792891187325949431397020817 
1 6 5 2 0.071957805386931056323973621147160883992910385132 
1 6 5 3 -0.014525735634486516834051883506617741659283638000 
1 6 5 4 -0.032033900969773473899060434177954448387026786804 
1 6 5 5 0.075154416155330305837622972831013612449169158936 
1 6 5 6 0.008876144853736920442566216138402523938566446304 
1 6 6 0 0.008907173153997516995561412045390170533210039139 
1 6 6 1 0.072797529050745074519213062558264937251806259155 
1 6 6 2 -0.004144054583970886718180537400257890112698078156 
1 6 6 3 0.028279284061141055778287878297305724117904901505 
1 6 6 4 0.032138258319646964555893475790071533992886543274 
1 6 6 5 0.008876144853736920442566216138402523938566446304 
1 6 6 6 0.057458145920816557083998787902601179666817188263 
1 6 7 7 0.089288125102226056917231744591845199465751647949 
1 6 7 8 0.047574885606728303799606294433033326640725135803 
1 6 7 9 0.011074304312166827202190688694827258586883544922 
1 6 7 10 0.070007577758858255401186454491835320368409156799 
1 6 8 7 0.047574885606728303799606294433033326640725135803 
1 6 8 8 0.036237052943114453351647341605712426826357841492 
1 6 8 9 0.019473451348819524608924069752902141772210597992 
1 6 8 10 0.049771229077277781560617597733653383329510688782 
1 6 9 7 0.011074304312166827202190688694827258586883544922 
1 6 9 8 0.019473451348819524608924069752902141772210597992 
1 6 9 9 0.030483062677427147368902637936116661876440048218 
1 6 9 10 0.023837458791296232268885901817156991455703973770 
1 6 10 7 0.070007577758858255401186454491835320368409156799 
1 6 10 8 0.049771229077277781560617597733653383329510688782 
1 6 10 9 0.023837458791296232268885901817156991455703973770 
1 6 10 10 0.103545270861093913206119054848386440426111221313 
1 6 11 11 0.103491154574498728235809608122508507221937179565 
1 6 11 12 0.091076934946825963135275117110722931101918220520 
1 6 12 11 0.091076934946825963135275117110722931101918220520 
1 6 12 12 0.085612740993404115585896363427309552207589149475 
2 0 0 0 0.147005083366613192863425751966133248060941696167 
2 0 0 1 0.017351065952171815937044030420111084822565317154 
2 0 0 2 0.029715686525800134171193533916266460437327623367 
2 0 0 3 -0.002321423469718640261727493623311602277681231499 
2 0 0 4 -0.011065944870483346296197169067454524338245391846 
2 0 0 5 0.035437351510311639046779674799836357124149799347 
2 0 0 6 0.010830086666757285721041093040639680111780762672 
2 0 1 0 0.017351065952171815937044030420111084822565317154 
2 0 1 1 0.015323349387100731675004361420633358648046851158 
2 0 1 2 -0.021360908938007516777446426203823648393154144287 
2 0 1 3 0.011881190495848788918342719966858567204326391220 
2 0 1 4 0.013269565771547212063019571814947994425892829895 
2 0 1 5 -0.011354158385922118526534241311765072168782353401 
2 0 1 6 0.009172176193647799818942090155360347125679254532 
2 0 2 0 0.029715686525800134171193533916266460437327623367 
2 0 2 1 -0.021360908938007516777446426203823648393154144287 
2 0 2 2 -0.010958909351638646337279148212928703287616372108 
2 0 2 3 -0.002602547304847224046708831224350433330982923508 
2 0 2 4 -0.001380966416765596824212103399531770264729857445 
2 0 2 5 -0.006039615696121560482756418508643037057481706142 
2 0 2 6 -0.009327711839825126791114762170309404609724879265 
2 0 3 0 -0.002321423469718640261727493623311602277681231499 
2 0 3 1 0.011881190495848788918342719966858567204326391220 
2 0 3 2 -0.002602547304847224046708831224350433330982923508 
2 0 3 3 0.008325291372937918682461955199869407806545495987 
2 0 3 4 0.008456071314282720408073146245442330837249755859 
2 0 3 5 -0.004723959098553154149768840142087356070987880230 
2 0 3 6 0.008072872013474986785386278143050731159746646881 
2 0 4 0 -0.011065944870483346296197169067454524338245391846 
2 0 4 1 0.013269565771547212063019571814947994425892829895 
2 0 4 2 -0.001380966416765596824212103399531770264729857445 
2 0 4 3 0.008456071314282720408073146245442330837249755859 
2 0 4 4 0.014352503944220265305609096628813858842477202415 
2 0 4 5 -0.001005285636647115744476965737419504876015707850 
2 0 4 6 0.011575433837925482027930712547458824701607227325 
2 0 5 0 0.035437351510311639046779674799836357124149799347 
2 0 5 1 -0.011354158385922118526534241311765072168782353401 
2 0 5 2 -0.006039615696121560482756418508643037057481706142 
2 0 5 3 -0.004723959098553154149768840142087356070987880230 
2 0 5 4 -0.001005285636647115744476965737419504876015707850 
2 0 5 5 -0.008580713614957423754359133738489617826417088509 
2 0 5 6 -0.013960721312861607001920560833241324871778488159 
2 0 6 0 0.010830086666757285721041093040639680111780762672 
2 0 6 1 0.009172176193647799818942090155360347125679254532 
2 0 6 2 -0.009327711839825126791114762170309404609724879265 
2 0 6 3 0.008072872013474986785386278143050731159746646881 
2 0 6 4 0.011575433837925482027930712547458824701607227325 
2 0 6 5 -0.013960721312861607001920560833241324871778488159 
2 0 6 6 0.012478734723773155998460815396811085520312190056 
2 0 7 7 0.005801192124811054007249566666359896771609783173 
2 0 7 8 -0.000170857396178391695434894970162531535606831312 
2 0 7 9 -0.004766975312986001384052414664438401814550161362 
2 0 7 10 0.004374005454527491419669527061842018156312406063 
2 0 8 7 -0.000170857396178391695434894970162531535606831312 
2 0 8 8 0.001825380932046602802665269393855851376429200172 
2 0 8 9 -0.000718315912007579018133673898205415753182023764 
2 0 8 10 0.002891676603817837018506331503431283636018633842 
2 0 9 7 -0.004766975312986001384052414664438401814550161362 
2 0 9 8 -0.000718315912007579018133673898205415753182023764 
2 0 9 9 0.002816279936161186422949320729003375163301825523 
2 0 9 10 0.002331133382824558935436654039108361757826060057 
2 0 10 7 0.004374005454527491419669527061842018156312406063 
2 0 10 8 0.002891676603817837018506331503431283636018633842 
2 0 10 9 0.002331133382824558935436654039108361757826060057 
2 0 10 10 0.005547738625003655575651517750657149008475244045 
2 0 11 11 0.003573631032914710310005590443438450165558606386 
2 0 11 12 0.004464812294781344594041261331085479469038546085 
2 0 12 11 0.004464812294781344594041261331085479469038546085 
2 0 12 12 0.005537443804508355299498489898724074009805917740 
2 1 0 0 0.095174043637544558649210557632613927125930786133 
2 1 0 1 0.008328830643515814161070842658318724716082215309 
2 1 0 2 -0.021360908938007527185787282064666214864701032639 
2 1 0 3 0.011287177110317733047528676593174168374389410019 
2 1 0 4 0.018310064228641856343138272222859086468815803528 
2 1 0 5 -0.023604604014998923494639271325468143913894891739 
2 1 0 6 0.009193509230327853026798479163517185952514410019 
2 1 1 0 0.008328830643515814161070842658318724716082215309 
2 1 1 1 -0.013304594719687546852671111707877571461722254753 
2 1 1 2 0.117655411343867463691559294147737091407179832458 
2 1 1 3 -0.020372568010557909334856674377078888937830924988 
2 1 1 4 -0.006876470898261956982144837979831208940595388412 
2 1 1 5 0.031909044390937772728289445467453333549201488495 
[...]
11 2 11 4 0.000872670835884346417915535809584071103017777205 
11 2 11 5 0.013927841303598248803852222010846162447705864906 
11 2 11 6 0.002153799824495396079970799263492153841070830822 
11 2 12 0 -0.011715235891976075524589795406882331008091568947 
11 2 12 1 0.013100384301581814716630702832844690419733524323 
11 2 12 2 0.013515484508243254258008647639144328422844409943 
11 2 12 3 0.004643021727118604689843461841292082681320607662 
11 2 12 4 -0.005754270082309424598487890278875056537799537182 
11 2 12 5 0.032126656508999131001136362328907125629484653473 
11 2 12 6 0.022420497592544656739743658135921577922999858856 
11 3 0 11 -0.008604078343482316620915995031282363925129175186 
11 3 0 12 -0.009824125935107933318968242986102268332615494728 
11 3 1 11 0.027449570117753726433695860009720490779727697372 
11 3 1 12 0.017742929670575058320736161476816050708293914795 
11 3 2 11 -0.001291950628195085402916131300798951997421681881 
11 3 2 12 0.000834832351297223819626414087480270609376020730 
11 3 3 11 0.013329048459271424301175734683511109324172139168 
11 3 3 12 0.005558033105931519182729694250610918970778584480 
11 3 4 11 0.012674167773508535073112568625219864770770072937 
11 3 4 12 0.010450526265608404974383205399135476909577846527 
11 3 5 11 0.003747697763299400602887700983956165146082639694 
11 3 5 12 -0.000673777736758994928029098403499119740445166826 
11 3 6 11 0.010015296900984521286104289572449488332495093346 
11 3 6 12 0.013241843631477607720614564357219933299347758293 
11 3 11 0 -0.008604078343482316620915995031282363925129175186 
11 3 11 1 0.027449570117753726433695860009720490779727697372 
11 3 11 2 -0.001291950628195085402916131300798951997421681881 
11 3 11 3 0.013329048459271424301175734683511109324172139168 
11 3 11 4 0.012674167773508535073112568625219864770770072937 
11 3 11 5 0.003747697763299400602887700983956165146082639694 
11 3 11 6 0.010015296900984521286104289572449488332495093346 
11 3 12 0 -0.009824125935107933318968242986102268332615494728 
11 3 12 1 0.017742929670575058320736161476816050708293914795 
11 3 12 2 0.000834832351297223819626414087480270609376020730 
11 3 12 3 0.005558033105931519182729694250610918970778584480 
11 3 12 4 0.010450526265608404974383205399135476909577846527 
11 3 12 5 -0.000673777736758994928029098403499119740445166826 
11 3 12 6 0.013241843631477607720614564357219933299347758293 
11 4 0 11 -0.010129731957174420778344803295567544410005211830 
11 4 0 12 -0.011513191031589126156475799689360428601503372192 
11 4 1 11 0.042771855843339576241923793986643431708216667175 
11 4 1 12 0.013856666712799853985460529770534776616841554642 
11 4 2 11 0.000872670835884346743176187555235401305253617465 
11 4 2 12 -0.001515056733727156807953195816196512168971821666 
11 4 3 11 0.012674167773508543746729948509255336830392479897 
11 4 3 12 0.015856039841055425548832502613549877423793077469 
11 4 4 11 0.020886214746973372213822983667341759428381919861 
11 4 4 12 0.007116432459536796428789529045388917438685894012 
11 4 5 11 0.001642549513793578521564375805041890998836606741 
11 4 5 12 0.001169004600232277039234540794154781906399875879 
11 4 6 11 -0.001358051660829039802846907036837365012615919113 
11 4 6 12 0.032794817021375315124753768714072066359221935272 
11 4 11 0 -0.010129731957174420778344803295567544410005211830 
11 4 11 1 0.042771855843339576241923793986643431708216667175 
11 4 11 2 0.000872670835884346743176187555235401305253617465 
11 4 11 3 0.012674167773508543746729948509255336830392479897 
11 4 11 4 0.020886214746973372213822983667341759428381919861 
11 4 11 5 0.001642549513793578521564375805041890998836606741 
11 4 11 6 -0.001358051660829039802846907036837365012615919113 
11 4 12 0 -0.011513191031589126156475799689360428601503372192 
11 4 12 1 0.013856666712799853985460529770534776616841554642 
11 4 12 2 -0.001515056733727156807953195816196512168971821666 
11 4 12 3 0.015856039841055425548832502613549877423793077469 
11 4 12 4 0.007116432459536796428789529045388917438685894012 
11 4 12 5 0.001169004600232277039234540794154781906399875879 
11 4 12 6 0.032794817021375315124753768714072066359221935272 
11 5 0 11 -0.008769961459767404432508186573613784275949001312 
11 5 0 12 -0.010104084722392200901275316482497146353125572205 
11 5 1 11 0.022312835896075661201720663484593387693166732788 
11 5 1 12 0.013003505357267582109859205274915439076721668243 
11 5 2 11 0.013927841303598254008022649941267445683479309082 
11 5 2 12 0.018935804090178618569462187792851182166486978531 
11 5 3 11 0.003747697763299410143866818856395184411667287350 
11 5 3 12 0.001701328507208872773542873702012911962810903788 
11 5 4 11 0.001642549513793577654202637816638343792874366045 
11 5 4 12 -0.000973092873522365389357680065529621060704812407 
11 5 5 11 0.020565773969746712485084927379830332938581705093 
11 5 5 12 0.007160452881480131384628329271890834206715226173 
11 5 6 11 0.006206527910408663264996143027474317932501435280 
11 5 6 12 0.013374413882020114857640535888094746042042970657 
11 5 11 0 -0.008769961459767404432508186573613784275949001312 
11 5 11 1 0.022312835896075661201720663484593387693166732788 
11 5 11 2 0.013927841303598254008022649941267445683479309082 
11 5 11 3 0.003747697763299410143866818856395184411667287350 
11 5 11 4 0.001642549513793577654202637816638343792874366045 
11 5 11 5 0.020565773969746712485084927379830332938581705093 
11 5 11 6 0.006206527910408663264996143027474317932501435280 
11 5 12 0 -0.010104084722392200901275316482497146353125572205 
11 5 12 1 0.013003505357267582109859205274915439076721668243 
11 5 12 2 0.018935804090178618569462187792851182166486978531 
11 5 12 3 0.001701328507208872773542873702012911962810903788 
11 5 12 4 -0.000973092873522365389357680065529621060704812407 
11 5 12 5 0.007160452881480131384628329271890834206715226173 
11 5 12 6 0.013374413882020114857640535888094746042042970657 
11 6 0 11 -0.011808737942059114450765733295156678650528192520 
11 6 0 12 -0.014024759194126552863668422332921181805431842804 
11 6 1 11 -0.004479587416452136816591433898793184198439121246 
11 6 1 12 0.031888014174673642853186095180717529729008674622 
11 6 2 11 0.002153799824495399983098620211308116267900913954 
11 6 2 12 0.005205400672790731764205673925971495918929576874 
11 6 3 11 0.010015296900984495265252149920343072153627872467 
11 6 3 12 -0.005219164105587986365875075023268436780199408531 
11 6 4 11 -0.001358051660829033297633872123810760967899113894 
11 6 4 12 0.015888256132692540889550514293659944087266921997 
11 6 5 11 0.006206527910408651989293549178228204254992306232 
11 6 5 12 0.002665535478794933080953777349009214958641678095 
11 6 6 11 0.044590303317533247495774162416637409478425979614 
11 6 6 12 -0.018813773583901571839760435977950692176818847656 
11 6 11 0 -0.011808737942059114450765733295156678650528192520 
11 6 11 1 -0.004479587416452136816591433898793184198439121246 
11 6 11 2 0.002153799824495399983098620211308116267900913954 
11 6 11 3 0.010015296900984495265252149920343072153627872467 
11 6 11 4 -0.001358051660829033297633872123810760967899113894 
11 6 11 5 0.006206527910408651989293549178228204254992306232 
11 6 11 6 0.044590303317533247495774162416637409478425979614 
11 6 12 0 -0.014024759194126552863668422332921181805431842804 
11 6 12 1 0.031888014174673642853186095180717529729008674622 
11 6 12 2 0.005205400672790731764205673925971495918929576874 
11 6 12 3 -0.005219164105587986365875075023268436780199408531 
11 6 12 4 0.015888256132692540889550514293659944087266921997 
11 6 12 5 0.002665535478794933080953777349009214958641678095 
11 6 12 6 -0.018813773583901571839760435977950692176818847656 
12 0 0 11 0.037563685771840452098935259073186898604035377502 
12 0 0 12 0.046804519243476491729971655786357587203383445740 
12 0 1 11 -0.034377152751453310397522500352351926267147064209 
12 0 1 12 -0.022092386774175860886249012082771514542400836945 
12 0 2 11 -0.011715235891976072055142843453268142184242606163 
12 0 2 12 -0.008391037560402107159385209911306446883827447891 
12 0 3 11 -0.009824125935107924645350863102066796272993087769 
12 0 3 12 -0.010315248624173083830113384351534477900713682175 
12 0 4 11 -0.011513191031589136564816655550202995073050260544 
12 0 4 12 -0.007776489241462302554053209746598440688103437424 
12 0 5 11 -0.010104084722392202635998792459304240765050053596 
12 0 5 12 -0.010666558587035624566796698786674824077636003494 
12 0 6 11 -0.014024759194126585823414465892255975631996989250 
12 0 6 12 -0.025004477808058509641364608455660345498472452164 
12 0 11 0 0.037563685771840452098935259073186898604035377502 
12 0 11 1 -0.034377152751453310397522500352351926267147064209 
12 0 11 2 -0.011715235891976072055142843453268142184242606163 
12 0 11 3 -0.009824125935107924645350863102066796272993087769 
12 0 11 4 -0.011513191031589136564816655550202995073050260544 
12 0 11 5 -0.010104084722392202635998792459304240765050053596 
12 0 11 6 -0.014024759194126585823414465892255975631996989250 
12 0 12 0 0.046804519243476491729971655786357587203383445740 
12 0 12 1 -0.022092386774175860886249012082771514542400836945 
12 0 12 2 -0.008391037560402107159385209911306446883827447891 
12 0 12 3 -0.010315248624173083830113384351534477900713682175 
12 0 12 4 -0.007776489241462302554053209746598440688103437424 
12 0 12 5 -0.010666558587035624566796698786674824077636003494 
12 0 12 6 -0.025004477808058509641364608455660345498472452164 
12 1 0 11 -0.019090712797279526385940684463093930389732122421 
12 1 0 12 -0.022092386774175843539014252314700570423156023026 
12 1 1 11 0.039544427202384442587845825300973956473171710968 
12 1 1 12 0.037906534638432611006297889844063320197165012360 
12 1 2 11 0.013100384301581814716630702832844690419733524323 
12 1 2 12 0.009458900824307064567064706750443292548879981041 
12 1 3 11 0.017742929670575072198523969291272806003689765930 
12 1 3 12 0.007115253703291522444085437371086300117895007133 
12 1 4 11 0.013856666712799845311843149886499304557219147682 
12 1 4 12 0.015781980104423012911674106817372376099228858948 
12 1 5 11 0.013003505357267571701518349414072872605174779892 
12 1 5 12 0.010186960575517094163000564321919227950274944305 
12 1 6 11 0.031888014174673601219822671737347263842821121216 
12 1 6 12 0.015982900955174118157176010868170124012976884842 
12 1 11 0 -0.019090712797279526385940684463093930389732122421 
12 1 11 1 0.039544427202384442587845825300973956473171710968 
12 1 11 2 0.013100384301581814716630702832844690419733524323 
12 1 11 3 0.017742929670575072198523969291272806003689765930 
12 1 11 4 0.013856666712799845311843149886499304557219147682 
12 1 11 5 0.013003505357267571701518349414072872605174779892 
12 1 11 6 0.031888014174673601219822671737347263842821121216 
12 1 12 0 -0.022092386774175843539014252314700570423156023026 
12 1 12 1 0.037906534638432611006297889844063320197165012360 
12 1 12 2 0.009458900824307064567064706750443292548879981041 
12 1 12 3 0.007115253703291522444085437371086300117895007133 
12 1 12 4 0.015781980104423012911674106817372376099228858948 
12 1 12 5 0.010186960575517094163000564321919227950274944305 
12 1 12 6 0.015982900955174118157176010868170124012976884842 
12 2 0 11 -0.007252782536256313812572660282285141875036060810 
12 2 0 12 -0.008391037560402101955214781980885163648054003716 
12 2 1 11 0.016641913404464234171875602896761847659945487976 
12 2 1 12 0.009458900824307066301788182727250386960804462433 
12 2 2 11 0.013515484508243257727455599592758517246693372726 
12 2 2 12 0.018495340073672636438395500135811744257807731628 
12 2 3 11 0.000834832351297224795408369324434261216083541512 
12 2 3 12 0.001178849978232683701900862516254164802376180887 
12 2 4 11 -0.001515056733727152904825374868380549742141738534 
12 2 4 12 -0.002004494094994903764100913079460042354185134172 
12 2 5 11 0.018935804090178611630568283885622804518789052963 
12 2 5 12 0.007418162406583913084934245318891044007614254951 
12 2 6 11 0.005205400672790749111440433694042440038174390793 
12 2 6 12 0.010187676777080750117887575356689922045916318893 
12 2 11 0 -0.007252782536256313812572660282285141875036060810 
12 2 11 1 0.016641913404464234171875602896761847659945487976 
12 2 11 2 0.013515484508243257727455599592758517246693372726 
12 2 11 3 0.000834832351297224795408369324434261216083541512 
12 2 11 4 -0.001515056733727152904825374868380549742141738534 
12 2 11 5 0.018935804090178611630568283885622804518789052963 
12 2 11 6 0.005205400672790749111440433694042440038174390793 
12 2 12 0 -0.008391037560402101955214781980885163648054003716 
12 2 12 1 0.009458900824307066301788182727250386960804462433 
12 2 12 2 0.018495340073672636438395500135811744257807731628 
12 2 12 3 0.001178849978232683701900862516254164802376180887 
12 2 12 4 -0.002004494094994903764100913079460042354185134172 
12 2 12 5 0.007418162406583913084934245318891044007614254951 
12 2 12 6 0.010187676777080750117887575356689922045916318893 
12 3 0 11 -0.009022191039681168658881382782510627293959259987 
12 3 0 12 -0.010315248624173085564836860328341572312638163567 
12 3 1 11 0.038496318745533768257427453818309004418551921844 
12 3 1 12 0.007115253703291524178808913347893394529819488525 
12 3 2 11 0.004643021727118593414140867992045969003811478615 
12 3 2 12 0.001178849978232686303986076481464806420262902975 
12 3 3 11 0.005558033105931500100771458505732880439609289169 
12 3 3 12 0.018776376750936501353050900320340588223189115524 
12 3 4 11 0.015856039841055418609938598706321499776095151901 
12 3 4 12 0.002727129935309043767821535197981575038284063339 
12 3 5 11 0.001701328507208868870415052754196949535980820656 
12 3 5 12 0.005018486317295138901539708342625090153887867928 
12 3 6 11 -0.005219164105587956875575983417547831777483224869 
12 3 6 12 0.034175169461773513557290016251499764621257781982 
12 3 11 0 -0.009022191039681168658881382782510627293959259987 
12 3 11 1 0.038496318745533768257427453818309004418551921844 
12 3 11 2 0.004643021727118593414140867992045969003811478615 
12 3 11 3 0.005558033105931500100771458505732880439609289169 
12 3 11 4 0.015856039841055418609938598706321499776095151901 
12 3 11 5 0.001701328507208868870415052754196949535980820656 
12 3 11 6 -0.005219164105587956875575983417547831777483224869 
12 3 12 0 -0.010315248624173085564836860328341572312638163567 
12 3 12 1 0.007115253703291524178808913347893394529819488525 
12 3 12 2 0.001178849978232686303986076481464806420262902975 
12 3 12 3 0.018776376750936501353050900320340588223189115524 
12 3 12 4 0.002727129935309043767821535197981575038284063339 
12 3 12 5 0.005018486317295138901539708342625090153887867928 
12 3 12 6 0.034175169461773513557290016251499764621257781982 
12 4 0 11 -0.006693552978493542450488806849762113415636122227 
12 4 0 12 -0.007776489241462295615159305839370063040405511856 
12 4 1 11 0.012484509919157081581086998767204931937158107758 
12 4 1 12 0.015781980104423012911674106817372376099228858948 
12 4 2 11 -0.005754270082309423731126152290471509331837296486 
12 4 2 12 -0.002004494094994914172441768940302608825732022524 
12 4 3 11 0.010450526265608418852171013213592232204973697662 
12 4 3 12 0.002727129935309073258120626803702180041000247002 
12 4 4 11 0.007116432459536808571853860883038578322157263756 
12 4 4 12 0.013316556830815826084624120539956493303179740906 
12 4 5 11 -0.000973092873522361160969207372062328431638889015 
12 4 5 12 -0.004160699253980206999137259060717042302712798119 
12 4 6 11 0.015888256132692575584020033829801832325756549835 
12 4 6 12 0.001225849652392434555037148413703107507899403572 
12 4 11 0 -0.006693552978493542450488806849762113415636122227 
12 4 11 1 0.012484509919157081581086998767204931937158107758 
12 4 11 2 -0.005754270082309423731126152290471509331837296486 
12 4 11 3 0.010450526265608418852171013213592232204973697662 
12 4 11 4 0.007116432459536808571853860883038578322157263756 
12 4 11 5 -0.000973092873522361160969207372062328431638889015 
12 4 11 6 0.015888256132692575584020033829801832325756549835 
12 4 12 0 -0.007776489241462295615159305839370063040405511856 
12 4 12 1 0.015781980104423012911674106817372376099228858948 
12 4 12 2 -0.002004494094994914172441768940302608825732022524 
12 4 12 3 0.002727129935309073258120626803702180041000247002 
12 4 12 4 0.013316556830815826084624120539956493303179740906 
12 4 12 5 -0.004160699253980206999137259060717042302712798119 
12 4 12 6 0.001225849652392434555037148413703107507899403572 
12 5 0 11 -0.009282128409418470213476659580464911414310336113 
12 5 0 12 -0.010666558587035621097349746833060635253787040710 
12 5 1 11 0.027225747469615365486950153695033804979175329208 
12 5 1 12 0.010186960575517108040788372136375983245670795441 
12 5 2 11 0.032126656508999144878924170143363880924880504608 
12 5 2 12 0.007418162406583921758551625202926516067236661911 
12 5 3 11 -0.000673777736759002951125174796231931395595893264 
12 5 3 12 0.005018486317295147575157088226660562213510274887 
12 5 4 11 0.001169004600232287447575396654997348377946764231 
12 5 4 12 -0.004160699253980210468584211014331231126561760902 
12 5 5 11 0.007160452881480133119351805248697928618639707565 
12 5 5 12 0.031559038229294879285280472913655103184282779694 
12 5 6 11 0.002665535478794943055613764215650007827207446098 
12 5 6 12 0.018007399075754965123152828709862660616636276245 
12 5 11 0 -0.009282128409418470213476659580464911414310336113 
12 5 11 1 0.027225747469615365486950153695033804979175329208 
12 5 11 2 0.032126656508999144878924170143363880924880504608 
12 5 11 3 -0.000673777736759002951125174796231931395595893264 
12 5 11 4 0.001169004600232287447575396654997348377946764231 
12 5 11 5 0.007160452881480133119351805248697928618639707565 
12 5 11 6 0.002665535478794943055613764215650007827207446098 
12 5 12 0 -0.010666558587035621097349746833060635253787040710 
12 5 12 1 0.010186960575517108040788372136375983245670795441 
12 5 12 2 0.007418162406583921758551625202926516067236661911 
12 5 12 3 0.005018486317295147575157088226660562213510274887 
12 5 12 4 -0.004160699253980210468584211014331231126561760902 
12 5 12 5 0.031559038229294879285280472913655103184282779694 
12 5 12 6 0.018007399075754965123152828709862660616636276245 
12 6 0 11 -0.021882074382298041803629473633918678387999534607 
12 6 0 12 -0.025004477808058478416342040873132646083831787109 
12 6 1 11 0.092209735599468656275234934582840651273727416992 
12 6 1 12 0.015982900955174170198880290172382956370711326599 
12 6 2 11 0.022420497592544656739743658135921577922999858856 
12 6 2 12 0.010187676777080698076183296052477089688181877136 
12 6 3 11 0.013241843631477578230315472751499328296631574631 
12 6 3 12 0.034175169461773430290563169364759232848882675171 
12 6 4 11 0.032794817021375335941435480435757199302315711975 
12 6 4 12 0.001225849652392443228654528297738579567521810532 
12 6 5 11 0.013374413882020133939598771632972784573212265968 
12 6 5 12 0.018007399075754958184258924802634282968938350677 
12 6 6 11 -0.018813773583901481634139685183981782756745815277 
12 6 6 12 0.083578733402489252535261243792774621397256851196 
12 6 11 0 -0.021882074382298041803629473633918678387999534607 
12 6 11 1 0.092209735599468656275234934582840651273727416992 
12 6 11 2 0.022420497592544656739743658135921577922999858856 
12 6 11 3 0.013241843631477578230315472751499328296631574631 
12 6 11 4 0.032794817021375335941435480435757199302315711975 
12 6 11 5 0.013374413882020133939598771632972784573212265968 
12 6 11 6 -0.018813773583901481634139685183981782756745815277 
12 6 12 0 -0.025004477808058478416342040873132646083831787109 
12 6 12 1 0.015982900955174170198880290172382956370711326599 
12 6 12 2 0.010187676777080698076183296052477089688181877136 
12 6 12 3 0.034175169461773430290563169364759232848882675171 
12 6 12 4 0.001225849652392443228654528297738579567521810532 
12 6 12 5 0.018007399075754958184258924802634282968938350677 
12 6 12 6 0.083578733402489252535261243792774621397256851196 
****  HF Energy = -75.980157894596302980971813667565584182739257812500 
****  Molecular Integrals For CheMPS End Here 

*** PSI4 exiting successfully. Buy a developer a beer!
