    -----------------------------------------------------------------------
          PSI4: An Open-Source Ab Initio Electronic Structure Package
                              PSI 4.0.0-beta3 Driver

    J. M. Turney, A. C. Simmonett, R. M. Parrish, E. G. Hohenstein,
    F. A. Evangelista, J. T. Fermann, B. J. Mintz, L. A. Burns, J. J. Wilke,
    M. L. Abrams, N. J. Russ, M. L. Leininger, C. L. Janssen, E. T. Seidl,
    W. D. Allen, H. F. Schaefer, R. A. King, E. F. Valeev, C. D. Sherrill,
    and T. D. Crawford, WIREs Comput. Mol. Sci., (2011) (doi: 10.1002/wcms.93)

                         Additional Contributions by
    A. E. DePrince, M. Saitow, U. Bozkaya, A. Yu. Sokolov
    -----------------------------------------------------------------------

    Process ID:   4904
    PSI4DATADIR: /usr/local/psi4/share/psi

    Using LocalCommunicator (Number of processes = 1)

    Memory level set to 256.000 MB

  ==> Input File <==

--------------------------------------------------------------------------
molecule Hchain {
H          0.0000     0.0000     0.0000
H          0.0000     0.0000     2.0000
H          0.0000     0.0000     4.5000
H          0.0000     0.0000     6.5000
H          0.0000     0.0000     9.0000
H          0.0000     0.0000     11.000
units au
}

plugin_load("./mointegrals.so")

set basis 6-31g
set mointegrals print 1
set reference rhf

#optimize('scf')
scf()

plugin("mointegrals.so")


--------------------------------------------------------------------------
./mointegrals.so loaded.

*** tstart() called on seb-latitude
*** at Tue Jun 11 12:39:26 2013

	There are an even number of electrons - assuming singlet.
	Specify the multiplicity with the MULTP option in the
	input if this is incorrect


         ---------------------------------------------------------
                                   SCF
            by Justin Turney, Rob Parrish, and Andy Simmonett
                              RHF Reference
                        1 Threads,    256 MiB Core
         ---------------------------------------------------------

  ==> Geometry <==

    Molecular point group: d2h
    Full point group: D_inf_h

    Geometry (in Bohr), charge = 0, multiplicity = 1:

       Center              X                  Y                   Z       
    ------------   -----------------  -----------------  -----------------
           H          0.000000000000     0.000000000000    -5.500000000000
           H          0.000000000000     0.000000000000    -3.500000000000
           H          0.000000000000     0.000000000000    -1.000000000000
           H          0.000000000000     0.000000000000     1.000000000000
           H          0.000000000000     0.000000000000     3.500000000000
           H          0.000000000000     0.000000000000     5.500000000000

  Running in d2h symmetry.

  Nuclear repulsion =    3.952569652569653

  Charge       = 0
  Multiplicity = 1
  Electrons    = 6
  Nalpha       = 3
  Nbeta        = 3

  ==> Algorithm <==

  SCF Algorithm Type is PK.
  DIIS enabled.
  MOM disabled.
  Fractional occupation disabled.
  Guess Type is CORE.
  Energy threshold   = 1.00e-08
  Density threshold  = 1.00e-06
  Integral threshold = 0.00e+00

  ==> Primary Basis <==

  Basis Set: 6-31g
    Number of shells: 12
    Number of basis function: 12
    Number of Cartesian functions: 12
    Spherical Harmonics?: false
    Max angular momentum: 0

  ==> Pre-Iterations <==

   -------------------------------------------------------
    Irrep   Nso     Nmo     Nalpha   Nbeta   Ndocc  Nsocc
   -------------------------------------------------------
     Ag         6       6       0       0       0       0
     B1g        0       0       0       0       0       0
     B2g        0       0       0       0       0       0
     B3g        0       0       0       0       0       0
     Au         0       0       0       0       0       0
     B1u        6       6       0       0       0       0
     B2u        0       0       0       0       0       0
     B3u        0       0       0       0       0       0
   -------------------------------------------------------
    Total      12      12       3       3       3       0
   -------------------------------------------------------

  ==> Integral Setup <==

 MINTS: Wrapper to libmints.
   by Justin Turney

   Calculation information:
      Number of atoms:                   6
      Number of AO shells:              12
      Number of SO shells:               6
      Number of primitives:             24
      Number of atomic orbitals:        12
      Number of basis functions:        12

      Number of irreps:                  8
      Number of functions per irrep: [   6    0    0    0    0    6    0    0 ]

      Overlap, kinetic, potential, dipole, and quadrupole integrals
        stored in file 35.

      Computing two-electron integrals...done
      Computed 1569 non-zero two-electron integrals.
        Stored in file 33.

	Batch   1 pq = [       0,      42] index = [             0,903]
  ==> DiskJK: Disk-Based J/K Matrices <==

    J tasked:                  Yes
    K tasked:                  Yes
    wK tasked:                  No
    Memory (MB):               183
    Schwarz Cutoff:          0E+00

  Minimum eigenvalue in the overlap matrix is 2.3684494578E-02.
  Using Symmetric Orthogonalization.
  SCF Guess: Core (One-Electron) Hamiltonian.

  Initial RHF energy:    -1.82746799843261

  ==> Iterations <==

                        Total Energy        Delta E     Density RMS

   @RHF iter   1:    -2.72733221305240   -8.99864e-01   0.00000e+00 
   @RHF iter   2:    -3.22257899613478   -4.95247e-01   9.25774e-02 DIIS
   @RHF iter   3:    -3.23195252683071   -9.37353e-03   1.24493e-02 DIIS
   @RHF iter   4:    -3.23265095217483   -6.98425e-04   4.10910e-03 DIIS
   @RHF iter   5:    -3.23268662282508   -3.56707e-05   1.22040e-03 DIIS
   @RHF iter   6:    -3.23268666795155   -4.51265e-08   4.58601e-05 DIIS
   @RHF iter   7:    -3.23268666835278   -4.01234e-10   5.33314e-06 DIIS

  ==> Post-Iterations <==

	Orbital Energies (a.u.)
	-----------------------

	Doubly Occupied:                                                      

	   1Ag    -0.619278     1B1u   -0.539164     2Ag    -0.430978  

	Virtual:                                                              

	   2B1u    0.062105     3Ag     0.219782     3B1u    0.432820  
	   4Ag     0.911115     4B1u    0.976231     5Ag     1.065498  
	   5B1u    1.195466     6Ag     1.261613     6B1u    1.429283  

	Final Occupation by Irrep:
	         Ag   B1g   B2g   B3g    Au   B1u   B2u   B3u 
	DOCC [     2,    0,    0,    0,    0,    1,    0,    0 ]

  Energy converged.

  @RHF Final Energy:    -3.23268666835278

   => Energetics <=

    Nuclear Repulsion Energy =              3.9525696525696525
    One-Electron Energy =                 -11.1916735874487792
    Two-Electron Energy =                   4.0064172665263440
    DFT Exchange-Correlation Energy =       0.0000000000000000
    Empirical Dispersion Energy =           0.0000000000000000
    Total Energy =                         -3.2326866683527831


Properties computed using the SCF density matrix


Properties will be evaluated at   0.000000,   0.000000,   0.000000 Bohr
  ==> Properties <==

  Nuclear Dipole Moment: (a.u.)
     X:     0.0000      Y:     0.0000      Z:     0.0000

  Electronic Dipole Moment: (a.u.)
     X:     0.0000      Y:     0.0000      Z:     0.0000

  Dipole Moment: (a.u.)
     X:     0.0000      Y:     0.0000      Z:     0.0000     Total:     0.0000

  Dipole Moment: (Debye)
     X:     0.0000      Y:     0.0000      Z:     0.0000     Total:     0.0000


  Saving occupied orbitals to File 180.

*** tstop() called on seb-latitude at Tue Jun 11 12:39:26 2013
Module time:
	user time   =       0.03 seconds =       0.00 minutes
	system time =       0.01 seconds =       0.00 minutes
	total time  =          0 seconds =       0.00 minutes
Total time:
	user time   =       0.03 seconds =       0.00 minutes
	system time =       0.01 seconds =       0.00 minutes
	total time  =          0 seconds =       0.00 minutes
Reading options from the MOINTEGRALS block
Calling plugin mointegrals.so.
	Presorting SO-basis two-electron integrals.
	Sorting File: SO Ints (nn|nn) nbuckets = 1
	Transforming the one-electron integrals and constructing Fock matrices
	Starting first half-transformation.
	Sorting half-transformed integrals.
	First half integral transformation complete.
	Starting second half-transformation.
	Two-electron integral transformation complete.
  ## MO OEI (Symmetry 0) ##
  Irrep: 1 Size: 6 x 6

                 1            2            3            4            5

    1   -2.0075645    0.1224803    0.0680389   -0.1457406    0.0563972
    2    0.1224803   -1.7781378    0.1496360   -0.0174505   -0.1319549
    3    0.0680389    0.1496360   -1.2767723   -0.0810969   -0.0999533
    4   -0.1457406   -0.0174505   -0.0810969   -0.7469165    0.1460502
    5    0.0563972   -0.1319549   -0.0999533    0.1460502   -0.5941331
    6    0.0199327    0.0677820   -0.2199234    0.0268790    0.0523172

                 6

    1    0.0199327
    2    0.0677820
    3   -0.2199234
    4    0.0268790
    5    0.0523172
    6   -0.4976614



  Irrep: 2 Size: 0 x 0

	(empty)

  Irrep: 3 Size: 0 x 0

	(empty)

  Irrep: 4 Size: 0 x 0

	(empty)

  Irrep: 5 Size: 0 x 0

	(empty)

  Irrep: 6 Size: 6 x 6

                 1            2            3            4            5

    1   -1.8101345    0.1566477   -0.0676723   -0.1235138    0.0717690
    2    0.1566477   -1.5051869   -0.1904160   -0.0360627   -0.1690251
    3   -0.0676723   -0.1904160   -1.2000779    0.1381441    0.1820614
    4   -0.1235138   -0.0360627    0.1381441   -0.6067470    0.0688128
    5    0.0717690   -0.1690251    0.1820614    0.0688128   -0.5226751
    6   -0.0030432   -0.0857361   -0.2064185    0.1050249   -0.0217632

                 6

    1   -0.0030432
    2   -0.0857361
    3   -0.2064185
    4    0.1050249
    5   -0.0217632
    6   -0.4402475



  Irrep: 7 Size: 0 x 0

	(empty)

  Irrep: 8 Size: 0 x 0

	(empty)

****  Molecular Integrals For CheMPS Start Here 
Symmetry Label = d2h 
Nirreps = 8 
Nuclear Repulsion Energy = 3.952569652569652536300282008596695959568023681641 
Number Of Molecular Orbitals = 12 
Irreps Of Molecular Orbitals = 
0 0 0 0 0 0 5 5 5 5 5 5 
DOCC =  2  0  0  0  0  1  0  0 
SOCC =  0  0  0  0  0  0  0  0 
****  MO OEI 
0 0 -2.007564462927707626960227571544237434864044189453 
0 1 0.122480269914533854147542513146618148311972618103 
0 2 0.068038892191090660777064158537541516125202178955 
0 3 -0.145740637677686635242935153655707836151123046875 
0 4 0.056397239105647985202285354944251594133675098419 
0 5 0.019932682535248432559304987421455734875053167343 
1 0 0.122480269914533854147542513146618148311972618103 
1 1 -1.778137823493621150205967751389835029840469360352 
1 2 0.149635963865848542475589511013822630047798156738 
1 3 -0.017450451231327074319565895166306290775537490845 
1 4 -0.131954924236069442988750211043225135654211044312 
1 5 0.067782013836973242781880344409728422760963439941 
2 0 0.068038892191090660777064158537541516125202178955 
2 1 0.149635963865848542475589511013822630047798156738 
2 2 -1.276772297121885557658060861285775899887084960938 
2 3 -0.081096907468366535853832033353683073073625564575 
2 4 -0.099953339137209898379587968975101830437779426575 
2 5 -0.219923404639921576952943382821104023605585098267 
3 0 -0.145740637677686635242935153655707836151123046875 
3 1 -0.017450451231327074319565895166306290775537490845 
3 2 -0.081096907468366535853832033353683073073625564575 
3 3 -0.746916487420801411545312475936952978372573852539 
3 4 0.146050209696204497111793330077489372342824935913 
3 5 0.026879007459180689898481375621486222371459007263 
4 0 0.056397239105647985202285354944251594133675098419 
4 1 -0.131954924236069442988750211043225135654211044312 
4 2 -0.099953339137209898379587968975101830437779426575 
4 3 0.146050209696204497111793330077489372342824935913 
4 4 -0.594133147125358473950029747356893494725227355957 
4 5 0.052317197828741272835895159687424893490970134735 
5 0 0.019932682535248432559304987421455734875053167343 
5 1 0.067782013836973242781880344409728422760963439941 
5 2 -0.219923404639921576952943382821104023605585098267 
5 3 0.026879007459180689898481375621486222371459007263 
5 4 0.052317197828741272835895159687424893490970134735 
5 5 -0.497661428575910003146987037325743585824966430664 
6 6 -1.810134528236426953995419353304896503686904907227 
6 7 0.156647743249912291263470365265675354748964309692 
6 8 -0.067672262738012370353324342886480735614895820618 
6 9 -0.123513838703361744641995301208226010203361511230 
6 10 0.071768988834367497542388036890770308673381805420 
6 11 -0.003043230334016455186640914831741611124016344547 
7 6 0.156647743249912291263470365265675354748964309692 
7 7 -1.505186886568898207983124848396982997655868530273 
7 8 -0.190416026461598830721300146251451224088668823242 
7 9 -0.036062724555126358938483832616839208640158176422 
7 10 -0.169025076759947906479553125791426282376050949097 
7 11 -0.085736137413896060244233865432761376723647117615 
8 6 -0.067672262738012370353324342886480735614895820618 
8 7 -0.190416026461598830721300146251451224088668823242 
8 8 -1.200077889983049317379482090473175048828125000000 
8 9 0.138144060427383752465146926624584011733531951904 
8 10 0.182061392692412143956559589241805952042341232300 
8 11 -0.206418528766278169817027787757979240268468856812 
9 6 -0.123513838703361744641995301208226010203361511230 
9 7 -0.036062724555126358938483832616839208640158176422 
9 8 0.138144060427383752465146926624584011733531951904 
9 9 -0.606746955268328003185729357937816530466079711914 
9 10 0.068812758149510488969724519847659394145011901855 
9 11 0.105024944505185333087915466876438586041331291199 
10 6 0.071768988834367497542388036890770308673381805420 
10 7 -0.169025076759947906479553125791426282376050949097 
10 8 0.182061392692412143956559589241805952042341232300 
10 9 0.068812758149510488969724519847659394145011901855 
10 10 -0.522675129719280540108172772306716069579124450684 
10 11 -0.021763173903996606978195060833058960270136594772 
11 6 -0.003043230334016455186640914831741611124016344547 
11 7 -0.085736137413896060244233865432761376723647117615 
11 8 -0.206418528766278169817027787757979240268468856812 
11 9 0.105024944505185333087915466876438586041331291199 
11 10 -0.021763173903996606978195060833058960270136594772 
11 11 -0.440247492399802875517877964739454910159111022949 
****  MO TEI 
0 0 0 0 0.368667224309107699475873687333660200238227844238 
0 0 0 1 -0.070761198625444651777449678320408565923571586609 
0 0 0 2 -0.007607648728330827780919065617126761935651302338 
0 0 0 3 0.050004530466777587227600321284626261331140995026 
0 0 0 4 -0.030305503927206468850474863074850873090326786041 
0 0 0 5 -0.000708544158536654369688612131739091637427918613 
0 0 1 0 -0.070761198625444651777449678320408565923571586609 
0 0 1 1 0.329798661633924961034125544756534509360790252686 
0 0 1 2 -0.061392033072386720249369318480603396892547607422 
0 0 1 3 -0.013246401650523452475649577309013693593442440033 
0 0 1 4 0.037599109494817012366851827209757175296545028687 
0 0 1 5 -0.028192474567091164311394280161948699969798326492 
0 0 2 0 -0.007607648728330827780919065617126761935651302338 
0 0 2 1 -0.061392033072386720249369318480603396892547607422 
0 0 2 2 0.267202328170080549707421369021176360547542572021 
0 0 2 3 0.021601426231489757878723168005308252759277820587 
0 0 2 4 0.010741757140435971226710698545048217056319117546 
0 0 2 5 0.045125604904775795667148940992774441838264465332 
0 0 3 0 0.050004530466777587227600321284626261331140995026 
0 0 3 1 -0.013246401650523452475649577309013693593442440033 
0 0 3 2 0.021601426231489757878723168005308252759277820587 
0 0 3 3 0.306261709580856356094358261543675325810909271240 
0 0 3 4 -0.071420024758795760955187859053694410249590873718 
0 0 3 5 0.002289281427429251496163953305540417204611003399 
0 0 4 0 -0.030305503927206468850474863074850873090326786041 
0 0 4 1 0.037599109494817012366851827209757175296545028687 
0 0 4 2 0.010741757140435971226710698545048217056319117546 
0 0 4 3 -0.071420024758795760955187859053694410249590873718 
0 0 4 4 0.301158064334630437564044314058264717459678649902 
0 0 4 5 -0.035770531771462367454095243601841502822935581207 
0 0 5 0 -0.000708544158536654369688612131739091637427918613 
0 0 5 1 -0.028192474567091164311394280161948699969798326492 
0 0 5 2 0.045125604904775795667148940992774441838264465332 
0 0 5 3 0.002289281427429251496163953305540417204611003399 
0 0 5 4 -0.035770531771462367454095243601841502822935581207 
0 0 5 5 0.313940234171228460535729709590668790042400360107 
0 0 6 6 0.289630822096651474595319086802192032337188720703 
0 0 6 7 -0.053742522074242536633814637525574653409421443939 
0 0 6 8 0.012853615892403429457613306396979169221594929695 
0 0 6 9 0.027451575294334572968635299616835254710167646408 
0 0 6 10 -0.025131522726679310364428232560385367833077907562 
0 0 6 11 -0.002995595813819928749516252608486865938175469637 
0 0 7 6 -0.053742522074242536633814637525574653409421443939 
0 0 7 7 0.303692608953195331000785017749876715242862701416 
0 0 7 8 0.073243253090722104658993885095696896314620971680 
0 0 7 9 -0.007782348403145185333773525826472905464470386505 
0 0 7 10 0.031791264108487565787086737145727965980768203735 
0 0 7 11 0.031413420402704082812217478704042150638997554779 
0 0 8 6 0.012853615892403429457613306396979169221594929695 
0 0 8 7 0.073243253090722104658993885095696896314620971680 
0 0 8 8 0.319160391943092258681957673616125248372554779053 
0 0 8 9 -0.041473695819405000106971925788457156158983707428 
0 0 8 10 -0.038482904677543318394672411386636667884886264801 
0 0 8 11 0.068689491312534101119524621026357635855674743652 
0 0 9 6 0.027451575294334572968635299616835254710167646408 
0 0 9 7 -0.007782348403145185333773525826472905464470386505 
0 0 9 8 -0.041473695819405000106971925788457156158983707428 
0 0 9 9 0.260465184105361069466511025893851183354854583740 
0 0 9 10 -0.030394583432535458161760644202331604901701211929 
0 0 9 11 -0.050240317203414028290886506056267535313963890076 
0 0 10 6 -0.025131522726679310364428232560385367833077907562 
0 0 10 7 0.031791264108487565787086737145727965980768203735 
0 0 10 8 -0.038482904677543318394672411386636667884886264801 
0 0 10 9 -0.030394583432535458161760644202331604901701211929 
0 0 10 10 0.292462585825050747079245638815336860716342926025 
0 0 10 11 0.010855919224484601379177028945832716999575495720 
0 0 11 6 -0.002995595813819928749516252608486865938175469637 
0 0 11 7 0.031413420402704082812217478704042150638997554779 
0 0 11 8 0.068689491312534101119524621026357635855674743652 
0 0 11 9 -0.050240317203414028290886506056267535313963890076 
0 0 11 10 0.010855919224484601379177028945832716999575495720 
0 0 11 11 0.385649503977554486411349898844491690397262573242 
0 1 0 0 -0.070761198625444637899661870505951810628175735474 
0 1 0 1 0.105320921338037457037906108325842069461941719055 
0 1 0 2 -0.022385594340162271592697962319107318762689828873 
0 1 0 3 -0.013119223924015746898796841435341775650158524513 
0 1 0 4 0.031079819762435591939953027917908912058919668198 
0 1 0 5 -0.017118640713793122770658428066781198140233755112 
0 1 1 0 0.105320921338037457037906108325842069461941719055 
0 1 1 1 -0.033786770087013522079200100733942235819995403290 
0 1 1 2 0.044325413165540575310963333777181105688214302063 
0 1 1 3 0.041769224063641023636517246586663532070815563202 
0 1 1 4 -0.005773170651428530253390647430933313444256782532 
0 1 1 5 0.011637646134965318189813388016773387789726257324 
0 1 2 0 -0.022385594340162271592697962319107318762689828873 
0 1 2 1 0.044325413165540575310963333777181105688214302063 
0 1 2 2 0.015411995544327844465115617822448257356882095337 
0 1 2 3 -0.014302087444049718656380321135657140985131263733 
0 1 2 4 0.020337491214030251063249465914850588887929916382 
0 1 2 5 0.016360325690296214501406879548994766082614660263 
0 1 3 0 -0.013119223924015746898796841435341775650158524513 
0 1 3 1 0.041769224063641023636517246586663532070815563202 
0 1 3 2 -0.014302087444049718656380321135657140985131263733 
0 1 3 3 -0.028351289480830269701394641401748231146484613419 
0 1 3 4 0.088315469533937790425071057143213693052530288696 
0 1 3 5 -0.028618148815174763999191753782724845223128795624 
0 1 4 0 0.031079819762435591939953027917908912058919668198 
0 1 4 1 -0.005773170651428530253390647430933313444256782532 
0 1 4 2 0.020337491214030251063249465914850588887929916382 
0 1 4 3 0.088315469533937790425071057143213693052530288696 
0 1 4 4 -0.028136586134803631686907010589493438601493835449 
0 1 4 5 0.056005424206062741354639200608289684168994426727 
0 1 5 0 -0.017118640713793122770658428066781198140233755112 
0 1 5 1 0.011637646134965318189813388016773387789726257324 
0 1 5 2 0.016360325690296214501406879548994766082614660263 
0 1 5 3 -0.028618148815174763999191753782724845223128795624 
0 1 5 4 0.056005424206062741354639200608289684168994426727 
0 1 5 5 0.008376302483133785115043679070367943495512008667 
0 1 6 6 0.042743770167432665330053964680701028555631637573 
0 1 6 7 0.041792850217155709524607942739748978056013584137 
0 1 6 8 0.026435863148925722865278942208533408120274543762 
0 1 6 9 0.017383279510627194786032134743436472490429878235 
0 1 6 10 0.000655897348597492355765092852948328072670847178 
0 1 6 11 0.011633197960411683843928720705207524588331580162 
0 1 7 6 0.041792850217155709524607942739748978056013584137 
0 1 7 7 -0.023090101487532894292131757651986845303326845169 
0 1 7 8 -0.071316442586019157534593659875099547207355499268 
0 1 7 9 0.031496593501522014701965446192843955941498279572 
0 1 7 10 0.017132984694439551409672617410251405090093612671 
0 1 7 11 -0.028178938680429338470290190343803260475397109985 
0 1 8 6 0.026435863148925722865278942208533408120274543762 
0 1 8 7 -0.071316442586019157534593659875099547207355499268 
0 1 8 8 -0.048466409634509065307295117008834495209157466888 
0 1 8 9 0.032508759640952927805201966293680015951395034790 
0 1 8 10 -0.007917384814206115256629558984968753065913915634 
0 1 8 11 -0.051488254102598454697847785155317978933453559875 
0 1 9 6 0.017383279510627194786032134743436472490429878235 
0 1 9 7 0.031496593501522014701965446192843955941498279572 
0 1 9 8 0.032508759640952927805201966293680015951395034790 
0 1 9 9 0.031734939945360113311423333470884244889020919800 
0 1 9 10 0.026262001211851907639394099192031717393547296524 
0 1 9 11 0.061702482031825094110910612243969808332622051239 
0 1 10 6 0.000655897348597492355765092852948328072670847178 
0 1 10 7 0.017132984694439551409672617410251405090093612671 
0 1 10 8 -0.007917384814206115256629558984968753065913915634 
0 1 10 9 0.026262001211851907639394099192031717393547296524 
0 1 10 10 0.039220855332307201501773619156665517948567867279 
0 1 10 11 -0.020600203117732803631545479561282263603061437607 
0 1 11 6 0.011633197960411683843928720705207524588331580162 
0 1 11 7 -0.028178938680429338470290190343803260475397109985 
0 1 11 8 -0.051488254102598454697847785155317978933453559875 
0 1 11 9 0.061702482031825094110910612243969808332622051239 
0 1 11 10 -0.020600203117732803631545479561282263603061437607 
0 1 11 11 -0.119861871247502221882186290713434573262929916382 
0 2 0 0 -0.007607648728330795688534760046195515315048396587 
0 2 0 1 -0.022385594340162261184357106458264752291142940521 
0 2 0 2 0.034249935806509687608034653294453164562582969666 
0 2 0 3 0.004723314773826543799817301305665750987827777863 
0 2 0 4 0.000461883968099468546469194007997316475666593760 
0 2 0 5 0.019497096004651721934397556879048352129757404327 
0 2 1 0 -0.022385594340162261184357106458264752291142940521 
0 2 1 1 0.006411065720854270885697978599182533798739314079 
0 2 1 2 0.015589812196751311190734412548408727161586284637 
0 2 1 3 -0.009150195213433166829819498389042564667761325836 
0 2 1 4 0.014235333898036750185922549860606522997841238976 
0 2 1 5 0.014240208244927856501282903423089010175317525864 
0 2 2 0 0.034249935806509687608034653294453164562582969666 
0 2 2 1 0.015589812196751311190734412548408727161586284637 
0 2 2 2 -0.012279627272845351770858002282693632878363132477 
0 2 2 3 0.008983515244169964705789332981566985836252570152 
0 2 2 4 -0.004437236907770965819997055490375714725814759731 
0 2 2 5 -0.019692925457246986814530131937317491974681615829 
0 2 3 0 0.004723314773826543799817301305665750987827777863 
0 2 3 1 -0.009150195213433166829819498389042564667761325836 
0 2 3 2 0.008983515244169964705789332981566985836252570152 
0 2 3 3 -0.000837218881070279051515026225160909234546124935 
0 2 3 4 0.000931462351495070768267470207035785279003903270 
0 2 3 5 0.032557580544961411961324415642593521624803543091 
0 2 4 0 0.000461883968099468546469194007997316475666593760 
0 2 4 1 0.014235333898036750185922549860606522997841238976 
0 2 4 2 -0.004437236907770965819997055490375714725814759731 
0 2 4 3 0.000931462351495070768267470207035785279003903270 
0 2 4 4 0.016392780974739350891011824273846286814659833908 
0 2 4 5 -0.003865308443227433079364407930711422523017972708 
0 2 5 0 0.019497096004651721934397556879048352129757404327 
0 2 5 1 0.014240208244927856501282903423089010175317525864 
0 2 5 2 -0.019692925457246986814530131937317491974681615829 
0 2 5 3 0.032557580544961411961324415642593521624803543091 
0 2 5 4 -0.003865308443227433079364407930711422523017972708 
0 2 5 5 -0.038667598611476866610203728669148404151201248169 
0 2 6 6 -0.026975719295886015774987853887978417333215475082 
0 2 6 7 0.024723087405830616869462090789966168813407421112 
0 2 6 8 -0.025356247125959168603470672564981214236468076706 
0 2 6 9 0.005306470705034361384777596981621172744780778885 
0 2 6 10 0.025974481840213826250307604937006544787436723709 
0 2 6 11 -0.005468219434448142249327595720842509763315320015 
0 2 7 6 0.024723087405830616869462090789966168813407421112 
0 2 7 7 -0.004711843030664300373266950572315181489102542400 
0 2 7 8 0.005510636629141301735812508155731848091818392277 
0 2 7 9 0.000007575242817434788480533865151489436584597570 
0 2 7 10 -0.008502461577018290139751144351976108737289905548 
0 2 7 11 0.018244186846726982709210318489567725919187068939 
0 2 8 6 -0.025356247125959168603470672564981214236468076706 
0 2 8 7 0.005510636629141301735812508155731848091818392277 
0 2 8 8 -0.003831105028303121579069667745898186694830656052 
0 2 8 9 -0.005649580995321919901774876393574231769889593124 
0 2 8 10 0.022290731897094004376747022888594074174761772156 
0 2 8 11 0.008294878190323399722028163694176328135654330254 
0 2 9 6 0.005306470705034361384777596981621172744780778885 
0 2 9 7 0.000007575242817434788480533865151489436584597570 
0 2 9 8 -0.005649580995321919901774876393574231769889593124 
0 2 9 9 0.005259671156709685643781959640818968182429671288 
0 2 9 10 0.024794962779433427774167242318981152493506669998 
0 2 9 11 -0.008872871371476652446741439916877425275743007660 
0 2 10 6 0.025974481840213826250307604937006544787436723709 
0 2 10 7 -0.008502461577018290139751144351976108737289905548 
0 2 10 8 0.022290731897094004376747022888594074174761772156 
0 2 10 9 0.024794962779433427774167242318981152493506669998 
0 2 10 10 -0.041942152870659533958619391569300205446779727936 
0 2 10 11 0.013317162421386110476850817008198646362870931625 
0 2 11 6 -0.005468219434448142249327595720842509763315320015 
0 2 11 7 0.018244186846726982709210318489567725919187068939 
0 2 11 8 0.008294878190323399722028163694176328135654330254 
0 2 11 9 -0.008872871371476652446741439916877425275743007660 
0 2 11 10 0.013317162421386110476850817008198646362870931625 
0 2 11 11 0.012397464261159098219966523402035818435251712799 
0 3 0 0 0.050004530466777608044282033006311394274234771729 
0 3 0 1 -0.013119223924015736490455985574499209178611636162 
0 3 0 2 0.004723314773826507370624305792716768337413668633 
0 3 0 3 0.031833642864270685068905919479220756329596042633 
0 3 0 4 -0.014794389128098108313058567375719576375558972359 
0 3 0 5 0.002378619132840316657134804856355003721546381712 
0 3 1 0 -0.013119223924015736490455985574499209178611636162 
0 3 1 1 0.048007589381988208243612348269380163401365280151 
0 3 1 2 -0.010259054327661869948640216421154036652296781540 
0 3 1 3 -0.004272372408366341585417291781823223573155701160 
0 3 1 4 0.028536501173125790320472816574692842550575733185 
0 3 1 5 -0.013300593072380705039758908014846383593976497650 
0 3 2 0 0.004723314773826507370624305792716768337413668633 
0 3 2 1 -0.010259054327661869948640216421154036652296781540 
0 3 2 2 0.027716520298086057272346494073644862510263919830 
0 3 2 3 0.006886997242335380665922972553971703746356070042 
0 3 2 4 0.003288302676015839118989214640009777212981134653 
0 3 2 5 0.022106890659456257530735001637367531657218933105 
0 3 3 0 0.031833642864270685068905919479220756329596042633 
0 3 3 1 -0.004272372408366341585417291781823223573155701160 
0 3 3 2 0.006886997242335380665922972553971703746356070042 
0 3 3 3 0.040507653017056451105748493546343524940311908722 
0 3 3 4 -0.008738046510418494977612269281053158920258283615 
0 3 3 5 0.006739203019397727381645246680363925406709313393 
0 3 4 0 -0.014794389128098108313058567375719576375558972359 
0 3 4 1 0.028536501173125790320472816574692842550575733185 
0 3 4 2 0.003288302676015839118989214640009777212981134653 
0 3 4 3 -0.008738046510418494977612269281053158920258283615 
0 3 4 4 0.044415623008645231661883912011035135947167873383 
0 3 4 5 -0.000861260600214649118221144075135953244171105325 
0 3 5 0 0.002378619132840316657134804856355003721546381712 
0 3 5 1 -0.013300593072380705039758908014846383593976497650 
0 3 5 2 0.022106890659456257530735001637367531657218933105 
0 3 5 3 0.006739203019397727381645246680363925406709313393 
0 3 5 4 -0.000861260600214649118221144075135953244171105325 
0 3 5 5 0.043178350214938876483472540712682530283927917480 
0 3 6 6 0.036508286252472474386898682041646679863333702087 
0 3 6 7 -0.003063835692415775319857873526530056551564484835 
0 3 6 8 0.003295214159038037382565278221591142937541007996 
0 3 6 9 0.022476223224144265683266397104489442426711320877 
0 3 6 10 -0.008811414309189913307562846966902725398540496826 
0 3 6 11 -0.001572565183827830288809668246585715678520500660 
0 3 7 6 -0.003063835692415775319857873526530056551564484835 
0 3 7 7 0.033741883185636416253583291791073861531913280487 
0 3 7 8 0.013322367014405669255472375311910582240670919418 
0 3 7 9 -0.001048992120317080410651922051101792021654546261 
0 3 7 10 0.018334762306103591367190119854058139026165008545 
0 3 7 11 0.023170897044101114448100275922115542925894260406 
0 3 8 6 0.003295214159038037382565278221591142937541007996 
0 3 8 7 0.013322367014405669255472375311910582240670919418 
0 3 8 8 0.038394590737318781692444247255480149760842323303 
0 3 8 9 -0.010998364257207845356978381801127397920936346054 
0 3 8 10 -0.010143343844037399845148250676629686495289206505 
0 3 8 11 0.032498755859550074176489431465597590431571006775 
0 3 9 6 0.022476223224144265683266397104489442426711320877 
0 3 9 7 -0.001048992120317080410651922051101792021654546261 
0 3 9 8 -0.010998364257207845356978381801127397920936346054 
0 3 9 9 0.038332825143354641583837150164981721900403499603 
0 3 9 10 0.003806371000611544902492155983964039478451013565 
0 3 9 11 -0.014774118649488037283146191214200371177867054939 
0 3 10 6 -0.008811414309189913307562846966902725398540496826 
0 3 10 7 0.018334762306103591367190119854058139026165008545 
0 3 10 8 -0.010143343844037399845148250676629686495289206505 
0 3 10 9 0.003806371000611544902492155983964039478451013565 
0 3 10 10 0.041249387567274260757432813306877505965530872345 
0 3 10 11 0.002737931312323370162953306561348654213361442089 
0 3 11 6 -0.001572565183827830288809668246585715678520500660 
0 3 11 7 0.023170897044101114448100275922115542925894260406 
0 3 11 8 0.032498755859550074176489431465597590431571006775 
0 3 11 9 -0.014774118649488037283146191214200371177867054939 
0 3 11 10 0.002737931312323370162953306561348654213361442089 
0 3 11 11 0.064509553245909748153685825400316389277577400208 
0 4 0 0 -0.030305503927206486197709622842921817209571599960 
0 4 0 1 0.031079819762435571123271316196223779115825891495 
0 4 0 2 0.000461883968099517498197281728522511912160553038 
0 4 0 3 -0.014794389128098082292206427723613160196691751480 
0 4 0 4 0.028339376735446598909451410008841776289045810699 
0 4 0 5 -0.004295709771277194874428140280997467925772070885 
0 4 1 0 0.031079819762435571123271316196223779115825891495 
0 4 1 1 -0.014231557538129130380255560339719522744417190552 
0 4 1 2 0.020693830324930939656979944629711098968982696533 
0 4 1 3 0.026642103902789902175607394951839523855596780777 
0 4 1 4 -0.004946235149765738220439814654127985704690217972 
0 4 1 5 0.018760875509124492338530743040792003739625215530 
0 4 2 0 0.000461883968099517498197281728522511912160553038 
0 4 2 1 0.020693830324930939656979944629711098968982696533 
0 4 2 2 -0.002842565739488450097388616555349472037050873041 
0 4 2 3 -0.000769647416950812240585277912430228752782568336 
0 4 2 4 0.014524483481663727491017823467700509354472160339 
0 4 2 5 -0.003216828177621493169840993786579019797500222921 
0 4 3 0 -0.014794389128098082292206427723613160196691751480 
0 4 3 1 0.026642103902789902175607394951839523855596780777 
0 4 3 2 -0.000769647416950812240585277912430228752782568336 
0 4 3 3 -0.011676866959354452804586976810696796746924519539 
0 4 3 4 0.035194536421217392785365518648177385330200195312 
0 4 3 5 0.000210602626893254240561179080337694813351845369 
0 4 4 0 0.028339376735446598909451410008841776289045810699 
0 4 4 1 -0.004946235149765738220439814654127985704690217972 
0 4 4 2 0.014524483481663727491017823467700509354472160339 
0 4 4 3 0.035194536421217392785365518648177385330200195312 
0 4 4 4 -0.003306990580078239018446684127638945938087999821 
0 4 4 5 0.021301296592566701382231997285998659208416938782 
0 4 5 0 -0.004295709771277194874428140280997467925772070885 
0 4 5 1 0.018760875509124492338530743040792003739625215530 
0 4 5 2 -0.003216828177621493169840993786579019797500222921 
0 4 5 3 0.000210602626893254240561179080337694813351845369 
0 4 5 4 0.021301296592566701382231997285998659208416938782 
0 4 5 5 -0.011583380753941757007607904483847960364073514938 
0 4 6 6 0.004291200699657161422850837340092766680754721165 
0 4 6 7 0.020605743031033432050014297942652774509042501450 
0 4 6 8 0.001601143123183121222755098678192098304862156510 
0 4 6 9 0.011312190090386756852192107203336490783840417862 
0 4 6 10 0.014602919554762285384019726564019947545602917671 
0 4 6 11 0.009245091152509337176224057941453793318942189217 
0 4 7 6 0.020605743031033432050014297942652774509042501450 
0 4 7 7 -0.010779070654863541836587792488444392802193760872 
0 4 7 8 -0.020340244213620295443689656167407520115375518799 
0 4 7 9 0.021618886534149815009664408194112183991819620132 
0 4 7 10 0.002607124432125163069479123478799920121673494577 
0 4 7 11 -0.017638272813627824814330935510042763780802488327 
0 4 8 6 0.001601143123183121222755098678192098304862156510 
0 4 8 7 -0.020340244213620295443689656167407520115375518799 
0 4 8 8 -0.024329703550398325273551591862997156567871570587 
0 4 8 9 0.012445016060546262165464881377374695148319005966 
0 4 8 10 0.000428885835821906855058749385989358415827155113 
0 4 8 11 -0.031995593483752783614537662515431293286383152008 
0 4 9 6 0.011312190090386756852192107203336490783840417862 
0 4 9 7 0.021618886534149815009664408194112183991819620132 
0 4 9 8 0.012445016060546262165464881377374695148319005966 
0 4 9 9 0.013032991372738882140946969911965425126254558563 
0 4 9 10 0.020588453180109867607372464703985315281897783279 
0 4 9 11 0.026800233887305513480470153808710165321826934814 
0 4 10 6 0.014602919554762285384019726564019947545602917671 
0 4 10 7 0.002607124432125163069479123478799920121673494577 
0 4 10 8 0.000428885835821906855058749385989358415827155113 
0 4 10 9 0.020588453180109867607372464703985315281897783279 
0 4 10 10 -0.000512677583172667177512094038860368527821265161 
0 4 10 11 -0.000512481921426338293650004640511497200350277126 
0 4 11 6 0.009245091152509337176224057941453793318942189217 
0 4 11 7 -0.017638272813627824814330935510042763780802488327 
0 4 11 8 -0.031995593483752783614537662515431293286383152008 
0 4 11 9 0.026800233887305513480470153808710165321826934814 
0 4 11 10 -0.000512481921426338293650004640511497200350277126 
0 4 11 11 -0.056135309028404876963147529522757395170629024506 
0 5 0 0 -0.000708544158536727011234168660536170136765576899 
0 5 0 1 -0.017118640713793143587340139788466331083327531815 
0 5 0 2 0.019497096004651728873291460786276729777455329895 
0 5 0 3 0.002378619132840265916473132534747492172755300999 
0 5 0 4 -0.004295709771277113342424769371064030565321445465 
0 5 0 5 0.026776201965028917362232618870621081441640853882 
0 5 1 0 -0.017118640713793143587340139788466331083327531815 
0 5 1 1 0.003792063803056683682357608233814971754327416420 
0 5 1 2 0.010397672291220969378877647670833539450541138649 
0 5 1 3 -0.012731889138056038529578373186268436256796121597 
0 5 1 4 0.015202325678542160866668631058473692974075675011 
0 5 1 5 0.012837870561486167814146952537157631013542413712 
0 5 2 0 0.019497096004651728873291460786276729777455329895 
0 5 2 1 0.010397672291220969378877647670833539450541138649 
0 5 2 2 -0.011855855582754362340103249096046056365594267845 
0 5 2 3 0.015317444686580465595948652435254189185798168182 
0 5 2 4 -0.003727519780177193133019475368428174988366663456 
0 5 2 5 -0.018840805156246431123490125969510700087994337082 
0 5 3 0 0.002378619132840265916473132534747492172755300999 
0 5 3 1 -0.012731889138056038529578373186268436256796121597 
0 5 3 2 0.015317444686580465595948652435254189185798168182 
0 5 3 3 0.003258000283655036136837290783319076581392437220 
0 5 3 4 -0.001012028502901158753465860051790059515042230487 
0 5 3 5 0.025646621497101004111263122808850312139838933945 
0 5 4 0 -0.004295709771277113342424769371064030565321445465 
0 5 4 1 0.015202325678542160866668631058473692974075675011 
0 5 4 2 -0.003727519780177193133019475368428174988366663456 
0 5 4 3 -0.001012028502901158753465860051790059515042230487 
0 5 4 4 0.014682143741019735086461572848293144488707184792 
0 5 4 5 -0.006182781574755874878790429249875160166993737221 
0 5 5 0 0.026776201965028917362232618870621081441640853882 
0 5 5 1 0.012837870561486167814146952537157631013542413712 
0 5 5 2 -0.018840805156246431123490125969510700087994337082 
0 5 5 3 0.025646621497101004111263122808850312139838933945 
0 5 5 4 -0.006182781574755874878790429249875160166993737221 
0 5 5 5 -0.035919974681067862176675475893716793507337570190 
0 5 6 6 -0.017028299415702941033146089466754347085952758789 
0 5 6 7 0.011666810276836228968400099859081819886341691017 
0 5 6 8 -0.018710887517823994452559333012686693109571933746 
0 5 6 9 -0.000470376712952745232310114431584224803373217583 
0 5 6 10 0.029523768507172785252601343586320581380277872086 
0 5 6 11 -0.007826408645774779113124530738332396140322089195 
0 5 7 6 0.011666810276836228968400099859081819886341691017 
0 5 7 7 0.002738334631253219655228070550379015912767499685 
0 5 7 8 0.012986489636853417589668069354047474917024374008 
0 5 7 9 0.002518224259428338083349752096751217322889715433 
0 5 7 10 -0.009252475810850912044114302545949612976983189583 
0 5 7 11 0.015305731985811846587730578050923213595524430275 
0 5 8 6 -0.018710887517823994452559333012686693109571933746 
0 5 8 7 0.012986489636853417589668069354047474917024374008 
0 5 8 8 -0.001089464944800071135450059145455270481761544943 
0 5 8 9 -0.011362428399288896155305828017390012973919510841 
0 5 8 10 0.020318241984764843360844466246817319188266992569 
0 5 8 11 0.010062152209927833351743586831616994459182024002 
0 5 9 6 -0.000470376712952745232310114431584224803373217583 
0 5 9 7 0.002518224259428338083349752096751217322889715433 
0 5 9 8 -0.011362428399288896155305828017390012973919510841 
0 5 9 9 0.008538592515671119750897410938250686740502715111 
0 5 9 10 0.016554249887716563499617805632624367717653512955 
0 5 9 11 -0.010175168695765035922762287157183891395106911659 
0 5 10 6 0.029523768507172785252601343586320581380277872086 
0 5 10 7 -0.009252475810850912044114302545949612976983189583 
0 5 10 8 0.020318241984764843360844466246817319188266992569 
0 5 10 9 0.016554249887716563499617805632624367717653512955 
0 5 10 10 -0.038899509560001432895148809620877727866172790527 
0 5 10 11 0.014024276377338809954076204178363695973530411720 
0 5 11 6 -0.007826408645774779113124530738332396140322089195 
0 5 11 7 0.015305731985811846587730578050923213595524430275 
0 5 11 8 0.010062152209927833351743586831616994459182024002 
0 5 11 9 -0.010175168695765035922762287157183891395106911659 
0 5 11 10 0.014024276377338809954076204178363695973530411720 
0 5 11 11 0.022770937085684273687435918986921024043112993240 
1 0 0 0 -0.070761198625444637899661870505951810628175735474 
1 0 0 1 0.105320921338037457037906108325842069461941719055 
1 0 0 2 -0.022385594340162271592697962319107318762689828873 
1 0 0 3 -0.013119223924015746898796841435341775650158524513 
1 0 0 4 0.031079819762435591939953027917908912058919668198 
1 0 0 5 -0.017118640713793122770658428066781198140233755112 
1 0 1 0 0.105320921338037457037906108325842069461941719055 
1 0 1 1 -0.033786770087013522079200100733942235819995403290 
1 0 1 2 0.044325413165540575310963333777181105688214302063 
1 0 1 3 0.041769224063641023636517246586663532070815563202 
1 0 1 4 -0.005773170651428530253390647430933313444256782532 
1 0 1 5 0.011637646134965318189813388016773387789726257324 
1 0 2 0 -0.022385594340162271592697962319107318762689828873 
1 0 2 1 0.044325413165540575310963333777181105688214302063 
1 0 2 2 0.015411995544327844465115617822448257356882095337 
1 0 2 3 -0.014302087444049718656380321135657140985131263733 
1 0 2 4 0.020337491214030251063249465914850588887929916382 
1 0 2 5 0.016360325690296214501406879548994766082614660263 
1 0 3 0 -0.013119223924015746898796841435341775650158524513 
1 0 3 1 0.041769224063641023636517246586663532070815563202 
1 0 3 2 -0.014302087444049718656380321135657140985131263733 
1 0 3 3 -0.028351289480830269701394641401748231146484613419 
1 0 3 4 0.088315469533937790425071057143213693052530288696 
1 0 3 5 -0.028618148815174763999191753782724845223128795624 
1 0 4 0 0.031079819762435591939953027917908912058919668198 
1 0 4 1 -0.005773170651428530253390647430933313444256782532 
1 0 4 2 0.020337491214030251063249465914850588887929916382 
1 0 4 3 0.088315469533937790425071057143213693052530288696 
1 0 4 4 -0.028136586134803631686907010589493438601493835449 
1 0 4 5 0.056005424206062741354639200608289684168994426727 
1 0 5 0 -0.017118640713793122770658428066781198140233755112 
1 0 5 1 0.011637646134965318189813388016773387789726257324 
1 0 5 2 0.016360325690296214501406879548994766082614660263 
1 0 5 3 -0.028618148815174763999191753782724845223128795624 
1 0 5 4 0.056005424206062741354639200608289684168994426727 
1 0 5 5 0.008376302483133785115043679070367943495512008667 
1 0 6 6 0.042743770167432665330053964680701028555631637573 
1 0 6 7 0.041792850217155709524607942739748978056013584137 
1 0 6 8 0.026435863148925722865278942208533408120274543762 
1 0 6 9 0.017383279510627194786032134743436472490429878235 
1 0 6 10 0.000655897348597492355765092852948328072670847178 
1 0 6 11 0.011633197960411683843928720705207524588331580162 
1 0 7 6 0.041792850217155709524607942739748978056013584137 
1 0 7 7 -0.023090101487532894292131757651986845303326845169 
1 0 7 8 -0.071316442586019157534593659875099547207355499268 
1 0 7 9 0.031496593501522014701965446192843955941498279572 
1 0 7 10 0.017132984694439551409672617410251405090093612671 
1 0 7 11 -0.028178938680429338470290190343803260475397109985 
1 0 8 6 0.026435863148925722865278942208533408120274543762 
1 0 8 7 -0.071316442586019157534593659875099547207355499268 
1 0 8 8 -0.048466409634509065307295117008834495209157466888 
1 0 8 9 0.032508759640952927805201966293680015951395034790 
1 0 8 10 -0.007917384814206115256629558984968753065913915634 
1 0 8 11 -0.051488254102598454697847785155317978933453559875 
1 0 9 6 0.017383279510627194786032134743436472490429878235 
1 0 9 7 0.031496593501522014701965446192843955941498279572 
1 0 9 8 0.032508759640952927805201966293680015951395034790 
1 0 9 9 0.031734939945360113311423333470884244889020919800 
1 0 9 10 0.026262001211851907639394099192031717393547296524 
1 0 9 11 0.061702482031825094110910612243969808332622051239 
1 0 10 6 0.000655897348597492355765092852948328072670847178 
1 0 10 7 0.017132984694439551409672617410251405090093612671 
1 0 10 8 -0.007917384814206115256629558984968753065913915634 
1 0 10 9 0.026262001211851907639394099192031717393547296524 
1 0 10 10 0.039220855332307201501773619156665517948567867279 
1 0 10 11 -0.020600203117732803631545479561282263603061437607 
1 0 11 6 0.011633197960411683843928720705207524588331580162 
1 0 11 7 -0.028178938680429338470290190343803260475397109985 
1 0 11 8 -0.051488254102598454697847785155317978933453559875 
1 0 11 9 0.061702482031825094110910612243969808332622051239 
1 0 11 10 -0.020600203117732803631545479561282263603061437607 
1 0 11 11 -0.119861871247502221882186290713434573262929916382 
1 1 0 0 0.329798661633924961034125544756534509360790252686 
1 1 0 1 -0.033786770087013515140306196826713858172297477722 
1 1 0 2 0.006411065720854240528037149005058381590060889721 
1 1 0 3 0.048007589381988263754763579527207184582948684692 
1 1 0 4 -0.014231557538129192830300695504774921573698520660 
1 1 0 5 0.003792063803056758709147944230721805070061236620 
1 1 1 0 -0.033786770087013515140306196826713858172297477722 
1 1 1 1 0.321086877406569493054178110469365492463111877441 
1 1 1 2 -0.030019154034274683068295175303319410886615514755 
1 1 1 3 0.001795000156217621458537569978375358914490789175 
1 1 1 4 0.045452814094998593430485556154962978325784206390 
1 1 1 5 -0.011860020366725379861727596164655551547184586525 
1 1 2 0 0.006411065720854240528037149005058381590060889721 
1 1 2 1 -0.030019154034274683068295175303319410886615514755 
1 1 2 2 0.266503266609381173068982207041699439287185668945 
1 1 2 3 0.021177891433149576005945391443674452602863311768 
1 1 2 4 0.018598975945748181387573438883009657729417085648 
1 1 2 5 0.040701732847197594211685611753637203946709632874 
1 1 3 0 0.048007589381988263754763579527207184582948684692 
1 1 3 1 0.001795000156217621458537569978375358914490789175 
1 1 3 2 0.021177891433149576005945391443674452602863311768 
1 1 3 3 0.293762458133756509948142365828971378505229949951 
1 1 3 4 -0.026595458909750839537888822405875544063746929169 
1 1 3 5 0.010683675160539510620716363575866125756874680519 
1 1 4 0 -0.014231557538129192830300695504774921573698520660 
1 1 4 1 0.045452814094998593430485556154962978325784206390 
1 1 4 2 0.018598975945748181387573438883009657729417085648 
1 1 4 3 -0.026595458909750839537888822405875544063746929169 
1 1 4 4 0.300982126366177160647907840029802173376083374023 
1 1 4 5 -0.010759086564717735418073019104667764622718095779 
1 1 5 0 0.003792063803056758709147944230721805070061236620 
1 1 5 1 -0.011860020366725379861727596164655551547184586525 
1 1 5 2 0.040701732847197594211685611753637203946709632874 
1 1 5 3 0.010683675160539510620716363575866125756874680519 
1 1 5 4 -0.010759086564717735418073019104667764622718095779 
1 1 5 5 0.293366638667838131038223536961595527827739715576 
1 1 6 6 0.294506650156616756053296057871193625032901763916 
1 1 6 7 -0.014251647899025667379224735498155496316030621529 
1 1 6 8 0.010293762501128280936746328677600104128941893578 
1 1 6 9 0.041012482575062195189197211675491416826844215393 
1 1 6 10 -0.006499158723779749347038148243882460519671440125 
1 1 6 11 -0.001834947955827935647463156065839484654134139419 
1 1 7 6 -0.014251647899025667379224735498155496316030621529 
1 1 7 7 0.287652365795184605801182442519348114728927612305 
1 1 7 8 0.041392351227352533471481876858888426795601844788 
1 1 7 9 0.008647279814388180926854055030617018928751349449 
1 1 7 10 0.035558716218996158642262628291064174845814704895 
1 1 7 11 0.030763867024995106974616376760423008818179368973 
1 1 8 6 0.010293762501128280936746328677600104128941893578 
1 1 8 7 0.041392351227352533471481876858888426795601844788 
1 1 8 8 0.292809984133925227389738665806362405419349670410 
1 1 8 9 -0.029515084742890270591564316760013753082603216171 
1 1 8 10 -0.027697750169319808322132558942030300386250019073 
1 1 8 11 0.049313527589542764661967311212720233015716075897 
1 1 9 6 0.041012482575062195189197211675491416826844215393 
1 1 9 7 0.008647279814388180926854055030617018928751349449 
1 1 9 8 -0.029515084742890270591564316760013753082603216171 
1 1 9 9 0.282330378839894702291957173656555823981761932373 
1 1 9 10 0.000033832459583344841184179146997834664034598973 
1 1 9 11 -0.025208314929896016853838602855830686166882514954 
1 1 10 6 -0.006499158723779749347038148243882460519671440125 
1 1 10 7 0.035558716218996158642262628291064174845814704895 
1 1 10 8 -0.027697750169319808322132558942030300386250019073 
1 1 10 9 0.000033832459583344841184179146997834664034598973 
1 1 10 10 0.284757808334027029406598785499227233231067657471 
1 1 10 11 0.009818495496085818258213961939873115625232458115 
1 1 11 6 -0.001834947955827935647463156065839484654134139419 
1 1 11 7 0.030763867024995106974616376760423008818179368973 
1 1 11 8 0.049313527589542764661967311212720233015716075897 
1 1 11 9 -0.025208314929896016853838602855830686166882514954 
1 1 11 10 0.009818495496085818258213961939873115625232458115 
1 1 11 11 0.336164026396958692810557067787158302962779998779 
1 2 0 0 -0.061392033072386678616005895037233131006360054016 
1 2 0 1 0.044325413165540547555387718148267595097422599792 
1 2 0 2 0.015589812196751288639329224849916499806568026543 
1 2 0 3 -0.010259054327661892500045404119646264007315039635 
1 2 0 4 0.020693830324930988229237271980309742502868175507 
1 2 0 5 0.010397672291220995399729787322939955629408359528 
1 2 1 0 0.044325413165540547555387718148267595097422599792 
1 2 1 1 -0.030019154034274696946082983117776166182011365891 
1 2 1 2 0.048322809917840332805116787540100631304085254669 
1 2 1 3 0.015830536747104700240340591221865906845778226852 
1 2 1 4 0.005762701047905324086562117713583575095981359482 
1 2 1 5 0.020980348708342932279036219256340700667351484299 
1 2 2 0 0.015589812196751288639329224849916499806568026543 
1 2 2 1 0.048322809917840332805116787540100631304085254669 
1 2 2 2 -0.006151380288672683542550156943207184667699038982 
1 2 2 3 -0.001282833500324718871421492139006659272126853466 
1 2 2 4 0.005965032245770587361610726162552964524365961552 
1 2 2 5 -0.014561693762707297178371490531390008982270956039 
1 2 3 0 -0.010259054327661892500045404119646264007315039635 
1 2 3 1 0.015830536747104700240340591221865906845778226852 
1 2 3 2 -0.001282833500324718871421492139006659272126853466 
1 2 3 3 -0.028075199585446509314978769111803558189421892166 
1 2 3 4 0.056133507233867188657150393282790901139378547668 
1 2 3 5 0.013730100615944661884837429965955379884690046310 
1 2 4 0 0.020693830324930988229237271980309742502868175507 
1 2 4 1 0.005762701047905324086562117713583575095981359482 
1 2 4 2 0.005965032245770587361610726162552964524365961552 
1 2 4 3 0.056133507233867188657150393282790901139378547668 
1 2 4 4 -0.011888750533962886071770448381812457228079438210 
1 2 4 5 0.031744424474391554069629961531973094679415225983 
1 2 5 0 0.010397672291220995399729787322939955629408359528 
1 2 5 1 0.020980348708342932279036219256340700667351484299 
1 2 5 2 -0.014561693762707297178371490531390008982270956039 
1 2 5 3 0.013730100615944661884837429965955379884690046310 
1 2 5 4 0.031744424474391554069629961531973094679415225983 
1 2 5 5 -0.043140539566160540640993303895811550319194793701 
1 2 6 6 -0.010639584391439844621163324234203173546120524406 
1 2 6 7 0.046429728946497238195600942844976088963449001312 
1 2 6 8 -0.014357157814857609071101940401149477111175656319 
1 2 6 9 0.010616753832202400348316828626593633089214563370 
1 2 6 10 0.026869858876926680513186340704123722389340400696 
1 2 6 11 0.004458306176144738973421421945886322646401822567 
1 2 7 6 0.046429728946497238195600942844976088963449001312 
1 2 7 7 -0.018853235350633112260565482642959977965801954269 
1 2 7 8 -0.039316728524232485986189544746594037860631942749 
1 2 7 9 0.018259763556752385549319939173074089922010898590 
1 2 7 10 -0.002840339935774729724499154670525058463681489229 
1 2 7 11 -0.003670224684929470054112199406404215551447123289 
1 2 8 6 -0.014357157814857609071101940401149477111175656319 
1 2 8 7 -0.039316728524232485986189544746594037860631942749 
1 2 8 8 -0.039026170279829595910481288001392385922372341156 
1 2 8 9 0.016174070399195081965126874479210528079420328140 
1 2 8 10 0.020063599178333269695828633416567754466086626053 
1 2 8 11 -0.028374731806429364516786151284577499609440565109 
1 2 9 6 0.010616753832202400348316828626593633089214563370 
1 2 9 7 0.018259763556752385549319939173074089922010898590 
1 2 9 8 0.016174070399195081965126874479210528079420328140 
1 2 9 9 0.015073233480062278241695672420519258594140410423 
1 2 9 10 0.040232683822504666792951866227667778730392456055 
1 2 9 11 0.029620192315455012854741312366968486458063125610 
1 2 10 6 0.026869858876926680513186340704123722389340400696 
1 2 10 7 -0.002840339935774729724499154670525058463681489229 
1 2 10 8 0.020063599178333269695828633416567754466086626053 
1 2 10 9 0.040232683822504666792951866227667778730392456055 
1 2 10 10 -0.026286768118738115113108833043042977806180715561 
1 2 10 11 0.000636600395376507111402930583210491022327914834 
1 2 11 6 0.004458306176144738973421421945886322646401822567 
1 2 11 7 -0.003670224684929470054112199406404215551447123289 
1 2 11 8 -0.028374731806429364516786151284577499609440565109 
1 2 11 9 0.029620192315455012854741312366968486458063125610 
1 2 11 10 0.000636600395376507111402930583210491022327914834 
1 2 11 11 -0.072245219503138238814621274741512024775147438049 
1 3 0 0 -0.013246401650523495843736476729191053891554474831 
1 3 0 1 0.041769224063641030575411150493891909718513488770 
1 3 0 2 -0.009150195213433158156202118505007092608138918877 
1 3 0 3 -0.004272372408366355463205099596279978868551552296 
1 3 0 4 0.026642103902789909114501298859067901503294706345 
1 3 0 5 -0.012731889138056047203195753070303908316418528557 
1 3 1 0 0.041769224063641030575411150493891909718513488770 
1 3 1 1 0.001795000156217628180591039388502849760698154569 
1 3 1 2 0.015830536747104696770893639268251718021929264069 
1 3 1 3 0.033675361718028672119995547973303473554551601410 
1 3 1 4 0.001256010655221186881475015084674851095769554377 
1 3 1 5 0.009876297670279443954854947662624908844009041786 
1 3 2 0 -0.009150195213433158156202118505007092608138918877 
1 3 2 1 0.015830536747104696770893639268251718021929264069 
1 3 2 2 0.014043346192209723785615516078451037174090743065 
1 3 2 3 -0.003173839212668972190045657555401703575626015663 
1 3 2 4 0.020014505066049320669563371666299644857645034790 
1 3 2 5 0.014238756667193883456712377721942175412550568581 
1 3 3 0 -0.004272372408366355463205099596279978868551552296 
1 3 3 1 0.033675361718028672119995547973303473554551601410 
1 3 3 2 -0.003173839212668972190045657555401703575626015663 
1 3 3 3 0.003295254175845594660915205409423833771143108606 
1 3 3 4 0.039122550101883458995022380122463800944387912750 
1 3 3 5 -0.009395214384197846102519946498432545922696590424 
1 3 4 0 0.026642103902789909114501298859067901503294706345 
1 3 4 1 0.001256010655221186881475015084674851095769554377 
1 3 4 2 0.020014505066049320669563371666299644857645034790 
1 3 4 3 0.039122550101883458995022380122463800944387912750 
1 3 4 4 0.008651356894548089052077166627441329183056950569 
1 3 4 5 0.027459008563790177764873945420731615740805864334 
1 3 5 0 -0.012731889138056047203195753070303908316418528557 
1 3 5 1 0.009876297670279443954854947662624908844009041786 
1 3 5 2 0.014238756667193883456712377721942175412550568581 
1 3 5 3 -0.009395214384197846102519946498432545922696590424 
1 3 5 4 0.027459008563790177764873945420731615740805864334 
1 3 5 5 0.020952708413330994874357315893576014786958694458 
1 3 6 6 0.031885536997898797362260836507630301639437675476 
1 3 6 7 0.016427667472763064770990837359931902028620243073 
1 3 6 8 0.012966122049802453891631515148219477850943803787 
1 3 6 9 0.022230764270724255593503215777673176489770412445 
1 3 6 10 0.001803239937602188697543525996991320425877347589 
1 3 6 11 0.012080888656927493002291029711159353610128164291 
1 3 7 6 0.016427667472763064770990837359931902028620243073 
1 3 7 7 0.002690592923639070505742454386677309230435639620 
1 3 7 8 -0.022819218924630249589746711080806562677025794983 
1 3 7 9 0.024209093983373616149057383495346584822982549667 
1 3 7 10 0.014928123697234068831263265053621580591425299644 
1 3 7 11 -0.016558016397938583180726723753650730941444635391 
1 3 8 6 0.012966122049802453891631515148219477850943803787 
1 3 8 7 -0.022819218924630249589746711080806562677025794983 
1 3 8 8 -0.010518466538049156197565103809665743028745055199 
1 3 8 9 0.013415924098346932238912110335604666033759713173 
1 3 8 10 -0.012554688878046661032472641750246111769229173660 
1 3 8 11 -0.026695945335539591342088883152428024914115667343 
1 3 9 6 0.022230764270724255593503215777673176489770412445 
1 3 9 7 0.024209093983373616149057383495346584822982549667 
1 3 9 8 0.013415924098346932238912110335604666033759713173 
1 3 9 9 0.030334004370597068139803198505433101672679185867 
1 3 9 10 0.017456527986544609354346846430416917428374290466 
1 3 9 11 0.029438250196011910703175473713599785696715116501 
1 3 10 6 0.001803239937602188697543525996991320425877347589 
1 3 10 7 0.014928123697234068831263265053621580591425299644 
1 3 10 8 -0.012554688878046661032472641750246111769229173660 
1 3 10 9 0.017456527986544609354346846430416917428374290466 
1 3 10 10 0.034836385725546842317967843882797751575708389282 
1 3 10 11 -0.005444097058289299774502811857246342697180807590 
1 3 11 6 0.012080888656927493002291029711159353610128164291 
1 3 11 7 -0.016558016397938583180726723753650730941444635391 
1 3 11 8 -0.026695945335539591342088883152428024914115667343 
1 3 11 9 0.029438250196011910703175473713599785696715116501 
1 3 11 10 -0.005444097058289299774502811857246342697180807590 
1 3 11 11 -0.045180605159225638300934946300912997685372829437 
1 4 0 0 0.037599109494817074816896962374812574125826358795 
1 4 0 1 -0.005773170651428558008966263059846824035048484802 
1 4 0 2 0.014235333898036760594263405721449089469388127327 
1 4 0 3 0.028536501173125783381578912667464464902877807617 
1 4 0 4 -0.004946235149765756435036312410602477029897272587 
1 4 0 5 0.015202325678542169540286010942509165033698081970 
1 4 1 0 -0.005773170651428558008966263059846824035048484802 
1 4 1 1 0.045452814094998614247167267876648111268877983093 
1 4 1 2 0.005762701047905337964349925528040330391377210617 
1 4 1 3 0.001256010655221204228709774852745795215014368296 
1 4 1 4 0.037480300954295886484146649308968335390090942383 
1 4 1 5 0.001120942423732714269754562330660974112106487155 
1 4 2 0 0.014235333898036760594263405721449089469388127327 
1 4 2 1 0.005762701047905337964349925528040330391377210617 
1 4 2 2 0.024239660536519675587685540563143149483948945999 
1 4 2 3 0.016010196427344552949634248761867638677358627319 
1 4 2 4 0.008803574337642448496832336957140796585008502007 
1 4 2 5 0.012866165568267515229017305955494521185755729675 
1 4 3 0 0.028536501173125783381578912667464464902877807617 
1 4 3 1 0.001256010655221204228709774852745795215014368296 
1 4 3 2 0.016010196427344552949634248761867638677358627319 
1 4 3 3 0.039669008984615186652611384943156735971570014954 
1 4 3 4 0.009205759852623592379150530007336783455684781075 
1 4 3 5 0.019896421979372046207057422861907980404794216156 
1 4 4 0 -0.004946235149765756435036312410602477029897272587 
1 4 4 1 0.037480300954295886484146649308968335390090942383 
1 4 4 2 0.008803574337642448496832336957140796585008502007 
1 4 4 3 0.009205759852623592379150530007336783455684781075 
1 4 4 4 0.053608695435610628776679220663936575874686241150 
1 4 4 5 0.007943265919259815538433500137216469738632440567 
1 4 5 0 0.015202325678542169540286010942509165033698081970 
1 4 5 1 0.001120942423732714269754562330660974112106487155 
1 4 5 2 0.012866165568267515229017305955494521185755729675 
1 4 5 3 0.019896421979372046207057422861907980404794216156 
1 4 5 4 0.007943265919259815538433500137216469738632440567 
1 4 5 5 0.022506483996288934035234774455602746456861495972 
1 4 6 6 0.033448112415485155290983954046168946661055088043 
1 4 6 7 0.012828289683998255268915222870873549254611134529 
1 4 6 8 -0.005427458198165243351274167338260667747817933559 
1 4 6 9 0.029383882820404640112688099407023400999605655670 
1 4 6 10 0.013380214965935346982384146485856035724282264709 
1 4 6 11 -0.000564191418596827034062646255563322483794763684 
1 4 7 6 0.012828289683998255268915222870873549254611134529 
1 4 7 7 0.033556461128476926247810041559205274097621440887 
1 4 7 8 0.009079798591356410056296688537713635014370083809 
1 4 7 9 0.011855391125960110243475753577513387426733970642 
1 4 7 10 0.016471960471289529004401686052005970850586891174 
1 4 7 11 0.024365470020190817951322159728988481219857931137 
1 4 8 6 -0.005427458198165243351274167338260667747817933559 
1 4 8 7 0.009079798591356410056296688537713635014370083809 
1 4 8 8 0.028170650220266359176068959868644014932215213776 
1 4 8 9 -0.011843596434746091194956107983671245165169239044 
1 4 8 10 0.000017079802465938306974164995200027306054835208 
1 4 8 11 0.024538525609972081792387044174574839416891336441 
1 4 9 6 0.029383882820404640112688099407023400999605655670 
1 4 9 7 0.011855391125960110243475753577513387426733970642 
1 4 9 8 -0.011843596434746091194956107983671245165169239044 
1 4 9 9 0.053732015515411665762535164958535460755228996277 
1 4 9 10 0.023256098506593075869730569138482678681612014771 
1 4 9 11 -0.007429647649730783225130448244044600869528949261 
1 4 10 6 0.013380214965935346982384146485856035724282264709 
1 4 10 7 0.016471960471289529004401686052005970850586891174 
1 4 10 8 0.000017079802465938306974164995200027306054835208 
1 4 10 9 0.023256098506593075869730569138482678681612014771 
1 4 10 10 0.025440269699683177445637127789268561173230409622 
1 4 10 11 0.009887734818170342693255392418905103113502264023 
1 4 11 6 -0.000564191418596827034062646255563322483794763684 
1 4 11 7 0.024365470020190817951322159728988481219857931137 
1 4 11 8 0.024538525609972081792387044174574839416891336441 
1 4 11 9 -0.007429647649730783225130448244044600869528949261 
1 4 11 10 0.009887734818170342693255392418905103113502264023 
1 4 11 11 0.053503020642686978380897500073842820711433887482 
1 5 0 0 -0.028192474567091233700333319234232476446777582169 
1 5 0 1 0.011637646134965354619006383529722370440140366554 
1 5 0 2 0.014240208244927870379070711237545765470713376999 
1 5 0 3 -0.013300593072380642589713772849790984764695167542 
1 5 0 4 0.018760875509124440296826463736579171381890773773 
1 5 0 5 0.012837870561486107098825293348909326596185564995 
1 5 1 0 0.011637646134965354619006383529722370440140366554 
1 5 1 1 -0.011860020366725350371428504558934946544468402863 
1 5 1 2 0.020980348708342894115119747766584623605012893677 
1 5 1 3 0.009876297670279419668726283987325587077066302299 
1 5 1 4 0.001120942423732739856925832988565616687992587686 
1 5 1 5 0.025168053026286243273323961489040812011808156967 
1 5 2 0 0.014240208244927870379070711237545765470713376999 
1 5 2 1 0.020980348708342894115119747766584623605012893677 
1 5 2 2 -0.013788336129173191235697260026427102275192737579 
1 5 2 3 0.007870348444591755004973165910087118390947580338 
1 5 2 4 0.007597358877558913793637263012215044000186026096 
1 5 2 5 -0.017442332347612145293513918886674218811094760895 
1 5 3 0 -0.013300593072380642589713772849790984764695167542 
1 5 3 1 0.009876297670279419668726283987325587077066302299 
1 5 3 2 0.007870348444591755004973165910087118390947580338 
1 5 3 3 -0.012161236302774955028715986316001362865790724754 
1 5 3 4 0.025296260743861570530199855966202449053525924683 
1 5 3 5 0.015930337749841417399609966309981246013194322586 
1 5 4 0 0.018760875509124440296826463736579171381890773773 
1 5 4 1 0.001120942423732739856925832988565616687992587686 
1 5 4 2 0.007597358877558913793637263012215044000186026096 
1 5 4 3 0.025296260743861570530199855966202449053525924683 
1 5 4 4 0.000936652638258532021370283970895798120182007551 
1 5 4 5 0.009603452779547806683613231371055007912218570709 
1 5 5 0 0.012837870561486107098825293348909326596185564995 
1 5 5 1 0.025168053026286243273323961489040812011808156967 
1 5 5 2 -0.017442332347612145293513918886674218811094760895 
1 5 5 3 0.015930337749841417399609966309981246013194322586 
1 5 5 4 0.009603452779547806683613231371055007912218570709 
1 5 5 5 -0.037728600349304364236502351559465751051902770996 
1 5 6 6 -0.012960263841706313667212491225200210465118288994 
1 5 6 7 0.023914350906550686098883673480486322659999132156 
1 5 6 8 -0.010135762308083247698609064002539525972679257393 
1 5 6 9 0.003144384717378008627097774052572276559658348560 
1 5 6 10 0.030753111806417158385906773787610291037708520889 
1 5 6 11 0.000036263423432092687672106262608551219273067545 
1 5 7 6 0.023914350906550686098883673480486322659999132156 
1 5 7 7 -0.013297838129156370687300459110247174976393580437 
1 5 7 8 -0.009189053348618903688249659467146557290107011795 
1 5 7 9 0.016099144947463586013958192211248388048261404037 
1 5 7 10 -0.005600330501893053744555395212501025525853037834 
1 5 7 11 -0.005503047510530196737010832919168024091050028801 
1 5 8 6 -0.010135762308083247698609064002539525972679257393 
1 5 8 7 -0.009189053348618903688249659467146557290107011795 
1 5 8 8 -0.024935564711591997472117654410794784780591726303 
1 5 8 9 0.002499448839103220968566043680425536877010017633 
1 5 8 10 0.015435027831932332520459283387026516720652580261 
1 5 8 11 -0.020346218285839091227673591788516205269843339920 
1 5 9 6 0.003144384717378008627097774052572276559658348560 
1 5 9 7 0.016099144947463586013958192211248388048261404037 
1 5 9 8 0.002499448839103220968566043680425536877010017633 
1 5 9 9 0.008964296956876635288913313104330882197245955467 
1 5 9 10 0.024099990822799444850632610837237734813243150711 
1 5 9 11 0.015742953975368692565162120899913134053349494934 
1 5 10 6 0.030753111806417158385906773787610291037708520889 
1 5 10 7 -0.005600330501893053744555395212501025525853037834 
1 5 10 8 0.015435027831932332520459283387026516720652580261 
1 5 10 9 0.024099990822799444850632610837237734813243150711 
1 5 10 10 -0.032541897961595442345661410854518180713057518005 
1 5 10 11 0.007054983631560003860816454590576540795154869556 
1 5 11 6 0.000036263423432092687672106262608551219273067545 
1 5 11 7 -0.005503047510530196737010832919168024091050028801 
1 5 11 8 -0.020346218285839091227673591788516205269843339920 
1 5 11 9 0.015742953975368692565162120899913134053349494934 
1 5 11 10 0.007054983631560003860816454590576540795154869556 
1 5 11 11 -0.035054820787806237336603487619868246838450431824 
2 0 0 0 -0.007607648728330795688534760046195515315048396587 
2 0 0 1 -0.022385594340162261184357106458264752291142940521 
2 0 0 2 0.034249935806509687608034653294453164562582969666 
2 0 0 3 0.004723314773826543799817301305665750987827777863 
2 0 0 4 0.000461883968099468546469194007997316475666593760 
2 0 0 5 0.019497096004651721934397556879048352129757404327 
2 0 1 0 -0.022385594340162261184357106458264752291142940521 
2 0 1 1 0.006411065720854270885697978599182533798739314079 
2 0 1 2 0.015589812196751311190734412548408727161586284637 
2 0 1 3 -0.009150195213433166829819498389042564667761325836 
2 0 1 4 0.014235333898036750185922549860606522997841238976 
2 0 1 5 0.014240208244927856501282903423089010175317525864 
2 0 2 0 0.034249935806509687608034653294453164562582969666 
2 0 2 1 0.015589812196751311190734412548408727161586284637 
2 0 2 2 -0.012279627272845351770858002282693632878363132477 
2 0 2 3 0.008983515244169964705789332981566985836252570152 
2 0 2 4 -0.004437236907770965819997055490375714725814759731 
2 0 2 5 -0.019692925457246986814530131937317491974681615829 
2 0 3 0 0.004723314773826543799817301305665750987827777863 
2 0 3 1 -0.009150195213433166829819498389042564667761325836 
2 0 3 2 0.008983515244169964705789332981566985836252570152 
2 0 3 3 -0.000837218881070279051515026225160909234546124935 
2 0 3 4 0.000931462351495070768267470207035785279003903270 
2 0 3 5 0.032557580544961411961324415642593521624803543091 
2 0 4 0 0.000461883968099468546469194007997316475666593760 
2 0 4 1 0.014235333898036750185922549860606522997841238976 
2 0 4 2 -0.004437236907770965819997055490375714725814759731 
2 0 4 3 0.000931462351495070768267470207035785279003903270 
2 0 4 4 0.016392780974739350891011824273846286814659833908 
2 0 4 5 -0.003865308443227433079364407930711422523017972708 
2 0 5 0 0.019497096004651721934397556879048352129757404327 
2 0 5 1 0.014240208244927856501282903423089010175317525864 
2 0 5 2 -0.019692925457246986814530131937317491974681615829 
2 0 5 3 0.032557580544961411961324415642593521624803543091 
2 0 5 4 -0.003865308443227433079364407930711422523017972708 
2 0 5 5 -0.038667598611476866610203728669148404151201248169 
2 0 6 6 -0.026975719295886015774987853887978417333215475082 
2 0 6 7 0.024723087405830616869462090789966168813407421112 
2 0 6 8 -0.025356247125959168603470672564981214236468076706 
2 0 6 9 0.005306470705034361384777596981621172744780778885 
2 0 6 10 0.025974481840213826250307604937006544787436723709 
2 0 6 11 -0.005468219434448142249327595720842509763315320015 
2 0 7 6 0.024723087405830616869462090789966168813407421112 
2 0 7 7 -0.004711843030664300373266950572315181489102542400 
2 0 7 8 0.005510636629141301735812508155731848091818392277 
2 0 7 9 0.000007575242817434788480533865151489436584597570 
2 0 7 10 -0.008502461577018290139751144351976108737289905548 
2 0 7 11 0.018244186846726982709210318489567725919187068939 
2 0 8 6 -0.025356247125959168603470672564981214236468076706 
2 0 8 7 0.005510636629141301735812508155731848091818392277 
2 0 8 8 -0.003831105028303121579069667745898186694830656052 
2 0 8 9 -0.005649580995321919901774876393574231769889593124 
2 0 8 10 0.022290731897094004376747022888594074174761772156 
2 0 8 11 0.008294878190323399722028163694176328135654330254 
2 0 9 6 0.005306470705034361384777596981621172744780778885 
2 0 9 7 0.000007575242817434788480533865151489436584597570 
2 0 9 8 -0.005649580995321919901774876393574231769889593124 
2 0 9 9 0.005259671156709685643781959640818968182429671288 
2 0 9 10 0.024794962779433427774167242318981152493506669998 
2 0 9 11 -0.008872871371476652446741439916877425275743007660 
2 0 10 6 0.025974481840213826250307604937006544787436723709 
2 0 10 7 -0.008502461577018290139751144351976108737289905548 
2 0 10 8 0.022290731897094004376747022888594074174761772156 
2 0 10 9 0.024794962779433427774167242318981152493506669998 
2 0 10 10 -0.041942152870659533958619391569300205446779727936 
2 0 10 11 0.013317162421386110476850817008198646362870931625 
2 0 11 6 -0.005468219434448142249327595720842509763315320015 
2 0 11 7 0.018244186846726982709210318489567725919187068939 
2 0 11 8 0.008294878190323399722028163694176328135654330254 
2 0 11 9 -0.008872871371476652446741439916877425275743007660 
2 0 11 10 0.013317162421386110476850817008198646362870931625 
2 0 11 11 0.012397464261159098219966523402035818435251712799 
2 1 0 0 -0.061392033072386678616005895037233131006360054016 
2 1 0 1 0.044325413165540547555387718148267595097422599792 
2 1 0 2 0.015589812196751288639329224849916499806568026543 
2 1 0 3 -0.010259054327661892500045404119646264007315039635 
2 1 0 4 0.020693830324930988229237271980309742502868175507 
2 1 0 5 0.010397672291220995399729787322939955629408359528 
2 1 1 0 0.044325413165540547555387718148267595097422599792 
2 1 1 1 -0.030019154034274696946082983117776166182011365891 
2 1 1 2 0.048322809917840332805116787540100631304085254669 
2 1 1 3 0.015830536747104700240340591221865906845778226852 
2 1 1 4 0.005762701047905324086562117713583575095981359482 
2 1 1 5 0.020980348708342932279036219256340700667351484299 
2 1 2 0 0.015589812196751288639329224849916499806568026543 
2 1 2 1 0.048322809917840332805116787540100631304085254669 
2 1 2 2 -0.006151380288672683542550156943207184667699038982 
2 1 2 3 -0.001282833500324718871421492139006659272126853466 
2 1 2 4 0.005965032245770587361610726162552964524365961552 
2 1 2 5 -0.014561693762707297178371490531390008982270956039 
2 1 3 0 -0.010259054327661892500045404119646264007315039635 
2 1 3 1 0.015830536747104700240340591221865906845778226852 
2 1 3 2 -0.001282833500324718871421492139006659272126853466 
2 1 3 3 -0.028075199585446509314978769111803558189421892166 
2 1 3 4 0.056133507233867188657150393282790901139378547668 
2 1 3 5 0.013730100615944661884837429965955379884690046310 
2 1 4 0 0.020693830324930988229237271980309742502868175507 
2 1 4 1 0.005762701047905324086562117713583575095981359482 
2 1 4 2 0.005965032245770587361610726162552964524365961552 
2 1 4 3 0.056133507233867188657150393282790901139378547668 
2 1 4 4 -0.011888750533962886071770448381812457228079438210 
2 1 4 5 0.031744424474391554069629961531973094679415225983 
2 1 5 0 0.010397672291220995399729787322939955629408359528 
2 1 5 1 0.020980348708342932279036219256340700667351484299 
2 1 5 2 -0.014561693762707297178371490531390008982270956039 
2 1 5 3 0.013730100615944661884837429965955379884690046310 
2 1 5 4 0.031744424474391554069629961531973094679415225983 
2 1 5 5 -0.043140539566160540640993303895811550319194793701 
2 1 6 6 -0.010639584391439844621163324234203173546120524406 
2 1 6 7 0.046429728946497238195600942844976088963449001312 
2 1 6 8 -0.014357157814857609071101940401149477111175656319 
2 1 6 9 0.010616753832202400348316828626593633089214563370 
2 1 6 10 0.026869858876926680513186340704123722389340400696 
2 1 6 11 0.004458306176144738973421421945886322646401822567 
2 1 7 6 0.046429728946497238195600942844976088963449001312 
2 1 7 7 -0.018853235350633112260565482642959977965801954269 
2 1 7 8 -0.039316728524232485986189544746594037860631942749 
2 1 7 9 0.018259763556752385549319939173074089922010898590 
2 1 7 10 -0.002840339935774729724499154670525058463681489229 
2 1 7 11 -0.003670224684929470054112199406404215551447123289 
2 1 8 6 -0.014357157814857609071101940401149477111175656319 
2 1 8 7 -0.039316728524232485986189544746594037860631942749 
2 1 8 8 -0.039026170279829595910481288001392385922372341156 
2 1 8 9 0.016174070399195081965126874479210528079420328140 
2 1 8 10 0.020063599178333269695828633416567754466086626053 
2 1 8 11 -0.028374731806429364516786151284577499609440565109 
2 1 9 6 0.010616753832202400348316828626593633089214563370 
2 1 9 7 0.018259763556752385549319939173074089922010898590 
2 1 9 8 0.016174070399195081965126874479210528079420328140 
2 1 9 9 0.015073233480062278241695672420519258594140410423 
2 1 9 10 0.040232683822504666792951866227667778730392456055 
2 1 9 11 0.029620192315455012854741312366968486458063125610 
2 1 10 6 0.026869858876926680513186340704123722389340400696 
2 1 10 7 -0.002840339935774729724499154670525058463681489229 
2 1 10 8 0.020063599178333269695828633416567754466086626053 
2 1 10 9 0.040232683822504666792951866227667778730392456055 
2 1 10 10 -0.026286768118738115113108833043042977806180715561 
2 1 10 11 0.000636600395376507111402930583210491022327914834 
2 1 11 6 0.004458306176144738973421421945886322646401822567 
2 1 11 7 -0.003670224684929470054112199406404215551447123289 
2 1 11 8 -0.028374731806429364516786151284577499609440565109 
2 1 11 9 0.029620192315455012854741312366968486458063125610 
2 1 11 10 0.000636600395376507111402930583210491022327914834 
2 1 11 11 -0.072245219503138238814621274741512024775147438049 
2 2 0 0 0.267202328170080438685118906505522318184375762939 
2 2 0 1 0.015411995544327886098479041265818523243069648743 
2 2 0 2 -0.012279627272845299729153722978480800520628690720 
2 2 0 3 0.027716520298086123191838581192314450163394212723 
2 2 0 4 -0.002842565739488552879754568181169815943576395512 
2 2 0 5 -0.011855855582754360605379773119238961953669786453 
2 2 1 0 0.015411995544327886098479041265818523243069648743 
2 2 1 1 0.266503266609381173068982207041699439287185668945 
2 2 1 2 -0.006151380288672677471017991024382354225963354111 
2 2 1 3 0.014043346192209787970384127220313530415296554565 
2 2 1 4 0.024239660536519724159942867913741793017834424973 
2 2 1 5 -0.013788336129173227664890255539376084925606846809 
2 2 2 0 -0.012279627272845299729153722978480800520628690720 
2 2 2 1 -0.006151380288672677471017991024382354225963354111 
2 2 2 2 0.264418981407166853170309650522540323436260223389 
2 2 2 3 0.004078386162872401146661793802650208817794919014 
2 2 2 4 0.017563514804153548126697259590400790330022573471 
2 2 2 5 0.038183101969242280726568594673153711482882499695 
2 2 3 0 0.027716520298086123191838581192314450163394212723 
2 2 3 1 0.014043346192209787970384127220313530415296554565 
2 2 3 2 0.004078386162872401146661793802650208817794919014 
2 2 3 3 0.250749138413745409348365456025931052863597869873 
2 2 3 4 0.009240153662936850462172877485045319190248847008 
2 2 3 5 -0.011333790549186820856286672665191872511059045792 
2 2 4 0 -0.002842565739488552879754568181169815943576395512 
2 2 4 1 0.024239660536519724159942867913741793017834424973 
2 2 4 2 0.017563514804153548126697259590400790330022573471 
2 2 4 3 0.009240153662936850462172877485045319190248847008 
2 2 4 4 0.250741014075628931845329816496814601123332977295 
2 2 4 5 0.014259220123341378311243587972967361565679311752 
2 2 5 0 -0.011855855582754360605379773119238961953669786453 
2 2 5 1 -0.013788336129173227664890255539376084925606846809 
2 2 5 2 0.038183101969242280726568594673153711482882499695 
2 2 5 3 -0.011333790549186820856286672665191872511059045792 
2 2 5 4 0.014259220123341378311243587972967361565679311752 
2 2 5 5 0.278761382162640347637250215484527871012687683105 
2 2 6 6 0.282389457647402641882194984646048396825790405273 
2 2 6 7 -0.004094199986835057869516418804778368212282657623 
2 2 6 8 0.016601967566403467990721054547975654713809490204 
2 2 6 9 0.030227831576440201272193419868017372209578752518 
2 2 6 10 -0.018494961385156747507574337419100629631429910660 
2 2 6 11 0.008211711328578754492957259003560466226190328598 
2 2 7 6 -0.004094199986835057869516418804778368212282657623 
2 2 7 7 0.260369664861407112965707710827700793743133544922 
2 2 7 8 -0.003702657553489904340010552274975452746730297804 
2 2 7 9 0.012516100447409294130207690898259897949174046516 
2 2 7 10 0.030781957073608770536488066227320814505219459534 
2 2 7 11 0.008719425385968586350582398836195352487266063690 
2 2 8 6 0.016601967566403467990721054547975654713809490204 
2 2 8 7 -0.003702657553489904340010552274975452746730297804 
2 2 8 8 0.253007073864165210608234701794572174549102783203 
2 2 8 9 -0.006425035259332000266152551404275072854943573475 
2 2 8 10 -0.026463618415802563771377364787440455984324216843 
2 2 8 11 0.015872115582414043216674670588872686494141817093 
2 2 9 6 0.030227831576440201272193419868017372209578752518 
2 2 9 7 0.012516100447409294130207690898259897949174046516 
2 2 9 8 -0.006425035259332000266152551404275072854943573475 
2 2 9 9 0.259678925941918437025890398217597976326942443848 
2 2 9 10 0.002144215592522825605814595917308906791731715202 
2 2 9 11 0.003036535938141594719030802451698036747984588146 
2 2 10 6 -0.018494961385156747507574337419100629631429910660 
2 2 10 7 0.030781957073608770536488066227320814505219459534 
2 2 10 8 -0.026463618415802563771377364787440455984324216843 
2 2 10 9 0.002144215592522825605814595917308906791731715202 
2 2 10 10 0.284835743704224209071895757006132043898105621338 
2 2 10 11 -0.005558165794058917037745448652685809065587818623 
2 2 11 6 0.008211711328578754492957259003560466226190328598 
2 2 11 7 0.008719425385968586350582398836195352487266063690 
2 2 11 8 0.015872115582414043216674670588872686494141817093 
[...]
11 1 6 3 0.011889977713336686085399129808592988410964608192 
11 1 6 4 -0.000177431277955975567244342738781881507748039439 
11 1 6 5 -0.000766165394624301844192504340469440649030730128 
11 1 7 0 -0.024404757817292389160401810954681423027068376541 
11 1 7 1 0.021713447070386856369017536394494527485221624374 
11 1 7 2 0.004728781687701325182893175025355958496220409870 
11 1 7 3 -0.012215943001579430970959805335951386950910091400 
11 1 7 4 0.020345413298357831188845068481896305456757545471 
11 1 7 5 -0.005889066254206307138296949688083259388804435730 
11 1 8 0 -0.027065281879870971282198155449805199168622493744 
11 1 8 1 0.024413747872094146429411409826570888981223106384 
11 1 8 2 -0.013638717124599511118510086760124977445229887962 
11 1 8 3 -0.016727138944162889266920046793529763817787170410 
11 1 8 4 0.019754182652021185645496714755608991254121065140 
11 1 8 5 -0.017943214671685303596149196891929022967815399170 
11 1 9 0 0.020766697826411870120288938323938054963946342468 
11 1 9 1 -0.006546902235855752739956958663469777093268930912 
11 1 9 2 0.007861753822514125356057945737120462581515312195 
11 1 9 3 0.022987479776558992355939281537757779005914926529 
11 1 9 4 -0.006540950964410241139090906870023900410160422325 
11 1 9 5 0.011580467249592831316395979968092433409765362740 
11 1 10 0 -0.006845708870717571656316913220052811084315180779 
11 1 10 1 0.002131733402128161303928921554984299291390925646 
11 1 10 2 0.006364978331660850127682316212940349942073225975 
11 1 10 3 -0.004358634163212877360438213258930773008614778519 
11 1 10 4 0.012619582525855118845803382043868623441085219383 
11 1 10 5 0.012267923141915318061001549665434140479192137718 
11 1 11 0 -0.032258593074352477636512759318065945990383625031 
11 1 11 1 0.036111240524810572782854478646186180412769317627 
11 1 11 2 -0.013809150595226870467113755580612632911652326584 
11 1 11 3 -0.036291862954560563658823468813352519646286964417 
11 1 11 4 0.041584340395922056443644976297946413978934288025 
11 1 11 5 -0.024221256330527247968564807933944393880665302277 
11 2 0 6 -0.011398783000040890039938901168170559685677289963 
11 2 0 7 0.024519729384674161104529233057292003650218248367 
11 2 0 8 0.009672220241399760026768106513372913468629121780 
11 2 0 9 -0.005061889130975532474776557023687928449362516403 
11 2 0 10 0.010284915291951562260619468247568875085562467575 
11 2 0 11 0.013286084000275769079202348166290903463959693909 
11 2 1 6 0.003796700781118289048932101792388493777252733707 
11 2 1 7 -0.001432364057683666426837310048370000004069879651 
11 2 1 8 -0.020899051899251459840645139820480835624039173126 
11 2 1 9 0.010631752424494296874191157087352621601894497871 
11 2 1 10 0.007674000230470156246054269644218948087655007839 
11 2 1 11 -0.013809150595226809751792096392364328494295477867 
11 2 2 6 0.017034580066103224144091754510554892476648092270 
11 2 2 7 0.001383520905091641670439650546597931679571047425 
11 2 2 8 0.003689486038985462495326528298278390138875693083 
11 2 2 9 0.000474108986187795049954685211446303583215922117 
11 2 2 10 -0.007818719449020621048429546817715163342654705048 
11 2 2 11 0.013044963878945360635785988279167213477194309235 
11 2 3 6 -0.001554322975828251011953806681731293792836368084 
11 2 3 7 0.008098049334600671347872413718960160622373223305 
11 2 3 8 0.005749159150606054750898277205806152778677642345 
11 2 3 9 -0.003521838344475075859713042447651787369977682829 
11 2 3 10 0.017845041228748664829950598686991725116968154907 
11 2 3 11 0.020265732244412016510581864281448360998183488846 
11 2 4 6 0.008441720123843593145962493906608870020136237144 
11 2 4 7 -0.003505968887526530065185115248027614143211394548 
11 2 4 8 -0.005957973881682484922073239630435637081973254681 
11 2 4 9 0.018378346734490173808307389435867662541568279266 
11 2 4 10 0.001904705091517780142854054936663033004151657224 
11 2 4 11 -0.018593403982974366500657836809295986313372850418 
11 2 5 6 0.009642220177467212757771441999921080423519015312 
11 2 5 7 0.001594458363644522249855106643678936961805447936 
11 2 5 8 0.015807344986500961731001879684299638029187917709 
11 2 5 9 0.007820158059882370560345066223817411810159683228 
11 2 5 10 -0.014047289405589349561842560376589972293004393578 
11 2 5 11 0.015705881958014141636104099575277359690517187119 
11 2 6 0 -0.011398783000040890039938901168170559685677289963 
11 2 6 1 0.003796700781118289048932101792388493777252733707 
11 2 6 2 0.017034580066103224144091754510554892476648092270 
11 2 6 3 -0.001554322975828251011953806681731293792836368084 
11 2 6 4 0.008441720123843593145962493906608870020136237144 
11 2 6 5 0.009642220177467212757771441999921080423519015312 
11 2 7 0 0.024519729384674161104529233057292003650218248367 
11 2 7 1 -0.001432364057683666426837310048370000004069879651 
11 2 7 2 0.001383520905091641670439650546597931679571047425 
11 2 7 3 0.008098049334600671347872413718960160622373223305 
11 2 7 4 -0.003505968887526530065185115248027614143211394548 
11 2 7 5 0.001594458363644522249855106643678936961805447936 
11 2 8 0 0.009672220241399760026768106513372913468629121780 
11 2 8 1 -0.020899051899251459840645139820480835624039173126 
11 2 8 2 0.003689486038985462495326528298278390138875693083 
11 2 8 3 0.005749159150606054750898277205806152778677642345 
11 2 8 4 -0.005957973881682484922073239630435637081973254681 
11 2 8 5 0.015807344986500961731001879684299638029187917709 
11 2 9 0 -0.005061889130975532474776557023687928449362516403 
11 2 9 1 0.010631752424494296874191157087352621601894497871 
11 2 9 2 0.000474108986187795049954685211446303583215922117 
11 2 9 3 -0.003521838344475075859713042447651787369977682829 
11 2 9 4 0.018378346734490173808307389435867662541568279266 
11 2 9 5 0.007820158059882370560345066223817411810159683228 
11 2 10 0 0.010284915291951562260619468247568875085562467575 
11 2 10 1 0.007674000230470156246054269644218948087655007839 
11 2 10 2 -0.007818719449020621048429546817715163342654705048 
11 2 10 3 0.017845041228748664829950598686991725116968154907 
11 2 10 4 0.001904705091517780142854054936663033004151657224 
11 2 10 5 -0.014047289405589349561842560376589972293004393578 
11 2 11 0 0.013286084000275769079202348166290903463959693909 
11 2 11 1 -0.013809150595226809751792096392364328494295477867 
11 2 11 2 0.013044963878945360635785988279167213477194309235 
11 2 11 3 0.020265732244412016510581864281448360998183488846 
11 2 11 4 -0.018593403982974366500657836809295986313372850418 
11 2 11 5 0.015705881958014141636104099575277359690517187119 
11 3 0 6 -0.003485344052769099448818579389808292035013437271 
11 3 0 7 0.040902932711419280609188575681400834582746028900 
11 3 0 8 0.040124014030650939632849372173950541764497756958 
11 3 0 9 -0.012044400812326076441460820376505580497905611992 
11 3 0 10 0.003864279620961573805115740753990394296124577522 
11 3 0 11 0.039288735477113166660867449309080257080495357513 
11 3 1 6 0.024027807886157256933579162705427734181284904480 
11 3 1 7 -0.015455175638289591136254053083121107192710042000 
11 3 1 8 -0.033593996991837085652754524289775872603058815002 
11 3 1 9 0.026056949979445607340489132752736622933298349380 
11 3 1 10 0.001584027981238482832293534841028304072096943855 
11 3 1 11 -0.036291862954560633047762507885636296123266220093 
11 3 2 6 0.007953041689002170525069068673928995849564671516 
11 3 2 7 0.012498602238009212314628904039182089036330580711 
11 3 2 8 0.001920755041300225727726735946987446368439123034 
11 3 2 9 -0.003336811742940482862496143212638344266451895237 
11 3 2 10 0.009153911104042891308529839022867236053571105003 
11 3 2 11 0.020265732244412037327263576003133493941277265549 
11 3 3 6 0.003820681248714339738742351570977007213514298201 
11 3 3 7 0.016407925125068955479745724801432515960186719894 
11 3 3 8 0.022131289069550658804574894134020723868161439896 
11 3 3 9 -0.003371743384820020429659681582279517897404730320 
11 3 3 10 0.013404424424844992372318763784733164357021450996 
11 3 3 11 0.058189902252971527352176650538240210153162479401 
11 3 4 6 0.012684344917657176116110306907103222329169511795 
11 3 4 7 -0.008975566354660492740524802002255455590784549713 
11 3 4 8 -0.021185774695891196328645378343935590237379074097 
11 3 4 9 0.039486857384187924735474695125958533026278018951 
11 3 4 10 0.004051493236132768481494448309376821271143853664 
11 3 4 11 -0.049572717502488879148803135876732994802296161652 
11 3 5 6 -0.002962395824119917319555694845689686189871281385 
11 3 5 7 0.019332810797990592627249029078484454657882452011 
11 3 5 8 0.014712265027802255701327993619997869245707988739 
11 3 5 9 -0.004373611403749353733483307138385498546995222569 
11 3 5 10 0.014744547258447756460375543952068255748599767685 
11 3 5 11 0.028166793941557626002047953761575627140700817108 
11 3 6 0 -0.003485344052769099448818579389808292035013437271 
11 3 6 1 0.024027807886157256933579162705427734181284904480 
11 3 6 2 0.007953041689002170525069068673928995849564671516 
11 3 6 3 0.003820681248714339738742351570977007213514298201 
11 3 6 4 0.012684344917657176116110306907103222329169511795 
11 3 6 5 -0.002962395824119917319555694845689686189871281385 
11 3 7 0 0.040902932711419280609188575681400834582746028900 
11 3 7 1 -0.015455175638289591136254053083121107192710042000 
11 3 7 2 0.012498602238009212314628904039182089036330580711 
11 3 7 3 0.016407925125068955479745724801432515960186719894 
11 3 7 4 -0.008975566354660492740524802002255455590784549713 
11 3 7 5 0.019332810797990592627249029078484454657882452011 
11 3 8 0 0.040124014030650939632849372173950541764497756958 
11 3 8 1 -0.033593996991837085652754524289775872603058815002 
11 3 8 2 0.001920755041300225727726735946987446368439123034 
11 3 8 3 0.022131289069550658804574894134020723868161439896 
11 3 8 4 -0.021185774695891196328645378343935590237379074097 
11 3 8 5 0.014712265027802255701327993619997869245707988739 
11 3 9 0 -0.012044400812326076441460820376505580497905611992 
11 3 9 1 0.026056949979445607340489132752736622933298349380 
11 3 9 2 -0.003336811742940482862496143212638344266451895237 
11 3 9 3 -0.003371743384820020429659681582279517897404730320 
11 3 9 4 0.039486857384187924735474695125958533026278018951 
11 3 9 5 -0.004373611403749353733483307138385498546995222569 
11 3 10 0 0.003864279620961573805115740753990394296124577522 
11 3 10 1 0.001584027981238482832293534841028304072096943855 
11 3 10 2 0.009153911104042891308529839022867236053571105003 
11 3 10 3 0.013404424424844992372318763784733164357021450996 
11 3 10 4 0.004051493236132768481494448309376821271143853664 
11 3 10 5 0.014744547258447756460375543952068255748599767685 
11 3 11 0 0.039288735477113166660867449309080257080495357513 
11 3 11 1 -0.036291862954560633047762507885636296123266220093 
11 3 11 2 0.020265732244412037327263576003133493941277265549 
11 3 11 3 0.058189902252971527352176650538240210153162479401 
11 3 11 4 -0.049572717502488879148803135876732994802296161652 
11 3 11 5 0.028166793941557626002047953761575627140700817108 
11 4 0 6 0.054622084163572649784246237913976074196398258209 
11 4 0 7 -0.040821933251757959448813295466607087291777133942 
11 4 0 8 -0.038303220302758560211753291468994575552642345428 
11 4 0 9 0.026420580470337792083901362616416008677333593369 
11 4 0 10 -0.002343869095261422175191512451419839635491371155 
11 4 0 11 -0.040028542511291370642467768448113929480314254761 
11 4 1 6 0.032955129859042232853827414373881765641272068024 
11 4 1 7 0.047214325046834614008073316426816745661199092865 
11 4 1 8 0.044381596957249080936946938891196623444557189941 
11 4 1 9 -0.006906751316880608594639401331960470997728407383 
11 4 1 10 0.008443445855408803629726932626908819656819105148 
11 4 1 11 0.041584340395922105015902303648545057512819766998 
11 4 2 6 -0.003801797183133768555374221165266135358251631260 
11 4 2 7 0.032924619024766885178046038618049351498484611511 
11 4 2 8 -0.037406084554617323456593425134997232817113399506 
11 4 2 9 0.019063465046282691145451693159884598571807146072 
11 4 2 10 0.010738441174229717070542911017128062667325139046 
11 4 2 11 -0.018593403982974380378445644623752741608768701553 
11 4 3 6 0.014339357661960025480674119080504169687628746033 
11 4 3 7 -0.006644855156579499225188989441903686383739113808 
11 4 3 8 -0.015367472931819803685926650871351739624515175819 
11 4 3 9 0.065293158658191352561317444269661791622638702393 
11 4 3 10 -0.012685500479117994138134051240740518551319837570 
11 4 3 11 -0.049572717502488775065394577268307330086827278137 
11 4 4 6 0.003363711252404764321527474990602968318853527308 
11 4 4 7 0.028275532267583992213078047939234238583594560623 
11 4 4 8 0.021261936731709271675150318969826912507414817810 
11 4 4 9 0.017243931786256962851444640705267374869436025620 
11 4 4 10 0.032507468204539140266273733459456707350909709930 
11 4 4 11 0.075824362974261497183370295260829152539372444153 
11 4 5 6 0.006556412548559896469324570489334291778504848480 
11 4 5 7 -0.005589184634281254768217728212675865506753325462 
11 4 5 8 -0.023924931962432345600166883059500833041965961456 
11 4 5 9 0.013141913124405735571742503964287607232108712196 
11 4 5 10 0.046580985530703021557652476758448756299912929535 
11 4 5 11 -0.040689148787847038979403890834873891435563564301 
11 4 6 0 0.054622084163572649784246237913976074196398258209 
11 4 6 1 0.032955129859042232853827414373881765641272068024 
11 4 6 2 -0.003801797183133768555374221165266135358251631260 
11 4 6 3 0.014339357661960025480674119080504169687628746033 
11 4 6 4 0.003363711252404764321527474990602968318853527308 
11 4 6 5 0.006556412548559896469324570489334291778504848480 
11 4 7 0 -0.040821933251757959448813295466607087291777133942 
11 4 7 1 0.047214325046834614008073316426816745661199092865 
11 4 7 2 0.032924619024766885178046038618049351498484611511 
11 4 7 3 -0.006644855156579499225188989441903686383739113808 
11 4 7 4 0.028275532267583992213078047939234238583594560623 
11 4 7 5 -0.005589184634281254768217728212675865506753325462 
11 4 8 0 -0.038303220302758560211753291468994575552642345428 
11 4 8 1 0.044381596957249080936946938891196623444557189941 
11 4 8 2 -0.037406084554617323456593425134997232817113399506 
11 4 8 3 -0.015367472931819803685926650871351739624515175819 
11 4 8 4 0.021261936731709271675150318969826912507414817810 
11 4 8 5 -0.023924931962432345600166883059500833041965961456 
11 4 9 0 0.026420580470337792083901362616416008677333593369 
11 4 9 1 -0.006906751316880608594639401331960470997728407383 
11 4 9 2 0.019063465046282691145451693159884598571807146072 
11 4 9 3 0.065293158658191352561317444269661791622638702393 
11 4 9 4 0.017243931786256962851444640705267374869436025620 
11 4 9 5 0.013141913124405735571742503964287607232108712196 
11 4 10 0 -0.002343869095261422175191512451419839635491371155 
11 4 10 1 0.008443445855408803629726932626908819656819105148 
11 4 10 2 0.010738441174229717070542911017128062667325139046 
11 4 10 3 -0.012685500479117994138134051240740518551319837570 
11 4 10 4 0.032507468204539140266273733459456707350909709930 
11 4 10 5 0.046580985530703021557652476758448756299912929535 
11 4 11 0 -0.040028542511291370642467768448113929480314254761 
11 4 11 1 0.041584340395922105015902303648545057512819766998 
11 4 11 2 -0.018593403982974380378445644623752741608768701553 
11 4 11 3 -0.049572717502488775065394577268307330086827278137 
11 4 11 4 0.075824362974261497183370295260829152539372444153 
11 4 11 5 -0.040689148787847038979403890834873891435563564301 
11 5 0 6 -0.039105230078644200031323663324656081385910511017 
11 5 0 7 0.032665529457435255045183453148638363927602767944 
11 5 0 8 0.015428091699223456592648950902457727352157235146 
11 5 0 9 -0.012955951334107760827829558536450349492952227592 
11 5 0 10 0.016102104363675078663176165605364076327532529831 
11 5 0 11 0.023580214742991070092648087097586540039628744125 
11 5 1 6 -0.021494449806310527567587698172246746253222227097 
11 5 1 7 -0.019715840252459763265457937109204067382961511612 
11 5 1 8 -0.032703934437645333643818190694219083525240421295 
11 5 1 9 0.011224283920735333291984758830039936583489179611 
11 5 1 10 0.008812809476371587583121147702058806316927075386 
11 5 1 11 -0.024221256330527293071375183330928848590701818466 
11 5 2 6 0.017939357921490910879880331663116521667689085007 
11 5 2 7 -0.021894333088993092606422408152866410091519355774 
11 5 2 8 0.028591501688421006033280491465120576322078704834 
11 5 2 9 -0.002017243454615796991596932130619279632810503244 
11 5 2 10 -0.015291164438054827973134663920973252970725297928 
11 5 2 11 0.015705881958014093063846772224678716156631708145 
11 5 3 6 -0.008520763311481075949482821840774704469367861748 
11 5 3 7 0.012709164806106107437067009868769673630595207214 
11 5 3 8 0.004961049833142858016266085741108327056281268597 
11 5 3 9 -0.033251333940986109449777785584956291131675243378 
11 5 3 10 0.024963719161446462635467469226568937301635742188 
11 5 3 11 0.028166793941557785596607743627828313037753105164 
11 5 4 6 0.009031900206976908526690372980283427750691771507 
11 5 4 7 -0.011952294516736209836760274072275933576747775078 
11 5 4 8 -0.012967236123408294040659782808688760269433259964 
11 5 4 9 0.002859624415464649075518943632800983323249965906 
11 5 4 10 -0.013456418763498723817351176990086969453841447830 
11 5 4 11 -0.040689148787847087551661218185472534969449043274 
11 5 5 6 0.013956313309646951881237697534743347205221652985 
11 5 5 7 -0.000073343656130805333056080219655825658264802769 
11 5 5 8 0.024087766402967340090279790842942020390182733536 
11 5 5 9 0.006481181516280411572528130648152000503614544868 
11 5 5 10 -0.048765411124158351829915858388631022535264492035 
11 5 5 11 0.032739048298413966908704253455653088167309761047 
11 5 6 0 -0.039105230078644200031323663324656081385910511017 
11 5 6 1 -0.021494449806310527567587698172246746253222227097 
11 5 6 2 0.017939357921490910879880331663116521667689085007 
11 5 6 3 -0.008520763311481075949482821840774704469367861748 
11 5 6 4 0.009031900206976908526690372980283427750691771507 
11 5 6 5 0.013956313309646951881237697534743347205221652985 
11 5 7 0 0.032665529457435255045183453148638363927602767944 
11 5 7 1 -0.019715840252459763265457937109204067382961511612 
11 5 7 2 -0.021894333088993092606422408152866410091519355774 
11 5 7 3 0.012709164806106107437067009868769673630595207214 
11 5 7 4 -0.011952294516736209836760274072275933576747775078 
11 5 7 5 -0.000073343656130805333056080219655825658264802769 
11 5 8 0 0.015428091699223456592648950902457727352157235146 
11 5 8 1 -0.032703934437645333643818190694219083525240421295 
11 5 8 2 0.028591501688421006033280491465120576322078704834 
11 5 8 3 0.004961049833142858016266085741108327056281268597 
11 5 8 4 -0.012967236123408294040659782808688760269433259964 
11 5 8 5 0.024087766402967340090279790842942020390182733536 
11 5 9 0 -0.012955951334107760827829558536450349492952227592 
11 5 9 1 0.011224283920735333291984758830039936583489179611 
11 5 9 2 -0.002017243454615796991596932130619279632810503244 
11 5 9 3 -0.033251333940986109449777785584956291131675243378 
11 5 9 4 0.002859624415464649075518943632800983323249965906 
11 5 9 5 0.006481181516280411572528130648152000503614544868 
11 5 10 0 0.016102104363675078663176165605364076327532529831 
11 5 10 1 0.008812809476371587583121147702058806316927075386 
11 5 10 2 -0.015291164438054827973134663920973252970725297928 
11 5 10 3 0.024963719161446462635467469226568937301635742188 
11 5 10 4 -0.013456418763498723817351176990086969453841447830 
11 5 10 5 -0.048765411124158351829915858388631022535264492035 
11 5 11 0 0.023580214742991070092648087097586540039628744125 
11 5 11 1 -0.024221256330527293071375183330928848590701818466 
11 5 11 2 0.015705881958014093063846772224678716156631708145 
11 5 11 3 0.028166793941557785596607743627828313037753105164 
11 5 11 4 -0.040689148787847087551661218185472534969449043274 
11 5 11 5 0.032739048298413966908704253455653088167309761047 
****  HF Energy = -3.232686668354748160680856017279438674449920654297 
****  Molecular Integrals For CheMPS End Here 

*** PSI4 exiting successfully. Buy a developer a beer!
