 &FCI NORB= 28,NELEC= 14,MS2= 0,
  ORBSYM=1,1,1,1,1,1,1,4,6,6,6,7,7,7,8,5,5,5,5,5,5,5,3,3,3,2,2,2,
  ISYM=1,
 /
  2.2973148856632131E+00   1   1   1   1
  1.9724859884426715E-01   2   1   1   1
  3.5456044307571682E-02   2   1   2   1
  8.2661217393535602E-01   2   2   1   1
 -5.2232748324373083E-03   2   2   2   1
  8.0506840059224549E-01   2   2   2   2
  7.2455145178691921E-02   3   1   1   1
  2.7498694601254562E-03   3   1   2   1
  3.0161656664239610E-02   3   1   2   2
  1.7659922258241464E-02   3   1   3   1
 -9.4181609163628999E-02   3   2   1   1
  8.8224893493396277E-03   3   2   2   1
 -1.4109713922138628E-01   3   2   2   2
 -1.6258741119479843E-02   3   2   3   1
  6.7385680348884383E-02   3   2   3   2
  6.9179339852228150E-01   3   3   1   1
  8.1999496746889278E-03   3   3   2   1
  5.6418995099983782E-01   3   3   2   2
 -1.4328785847078427E-03   3   3   3   1
 -3.2078425939470141E-02   3   3   3   2
  5.6124387751236171E-01   3   3   3   3
 -1.0831108281826018E-02   4   1   1   1
 -8.2116119725261991E-03   4   1   2   1
  1.8121542111053462E-02   4   1   2   2
  1.0431480596492779E-02   4   1   3   1
 -1.1503832138303355E-02   4   1   3   2
 -2.4427809444508412E-03   4   1   3   3
  9.0327646959103107E-03   4   1   4   1
 -1.0252416296126324E-01   4   2   1   1
  2.5592050075931294E-03   4   2   2   1
 -8.7738063860193949E-02   4   2   2   2
 -1.0608042348631341E-02   4   2   3   1
  4.0420008840421483E-02   4   2   3   2
 -4.5395733902720795E-02   4   2   3   3
 -7.0209735937207928E-03   4   2   4   1
  3.9495049358658531E-02   4   2   4   2
  1.6665610749707110E-01   4   3   1   1
  6.8104002211155992E-04   4   3   2   1
  1.3012031700069129E-01   4   3   2   2
  7.3861213090236971E-03   4   3   3   1
 -3.9738965048342109E-02   4   3   3   2
  6.4280738349427449E-02   4   3   3   3
  3.9631233832000358E-03   4   3   4   1
 -2.4082505360041556E-02   4   3   4   2
  4.7647915264130050E-02   4   3   4   3
  4.9552996409865402E-01   4   4   1   1
 -1.9533272683220889E-04   4   4   2   1
  4.6929752428772853E-01   4   4   2   2
  7.6305490485855700E-03   4   4   3   1
 -3.8821066029097670E-02   4   4   3   2
  4.1309117259633876E-01   4   4   3   3
  4.4341392736974832E-03   4   4   4   1
 -2.6121414571861314E-02   4   4   4   2
  3.8427748037053309E-02   4   4   4   3
  3.7269335365715062E-01   4   4   4   4
 -1.6347333753638887E-01   5   1   1   1
 -2.1783512061012214E-02   5   1   2   1
 -1.7969872168737092E-02   5   1   2   2
 -1.4884764817959868E-02   5   1   3   1
  6.5161978049892459E-03   5   1   3   2
 -2.4473993784328804E-03   5   1   3   3
 -3.2969074345444542E-03   5   1   4   1
  5.8209259340867969E-03   5   1   4   2
 -5.2635461136025961E-03   5   1   4   3
 -5.0902930283123473E-03   5   1   4   4
  2.3503086081588635E-02   5   1   5   1
 -1.3886083453381445E-01   5   2   1   1
 -3.9896159748815394E-03   5   2   2   1
 -8.2778752730710725E-02   5   2   2   2
 -4.2895677171742655E-03   5   2   3   1
  2.0292574881942475E-02   5   2   3   2
 -6.1953295531361530E-02   5   2   3   3
 -1.5011972509899937E-03   5   2   4   1
  2.3719496815746272E-02   5   2   4   2
 -2.3187294829377952E-02   5   2   4   3
 -2.6490796323711631E-02   5   2   4   4
  4.9464699472977092E-03   5   2   5   1
  2.4685872354396669E-02   5   2   5   2
 -1.5641715834848091E-01   5   3   1   1
 -1.0693849230774152E-02   5   3   2   1
 -5.0732099928245525E-02   5   3   2   2
  9.3602982813152415E-03   5   3   3   1
 -1.2059319179015964E-02   5   3   3   2
 -9.2231041294244434E-02   5   3   3   3
  7.9528425135856826E-03   5   3   4   1
  1.5778977311597709E-03   5   3   4   2
 -1.9402518812039717E-02   5   3   4   3
 -2.5641306106794721E-02   5   3   4   4
 -1.3684862410441566E-03   5   3   5   1
  2.0579000507725292E-02   5   3   5   2
  5.4472433700922258E-02   5   3   5   3
  8.9047080059439475E-03   5   4   1   1
 -5.4287706823025724E-03   5   4   2   1
  6.1527702394903697E-02   5   4   2   2
  6.8305475375935497E-03   5   4   3   1
 -2.3068363741893170E-02   5   4   3   2
 -1.4561651448653456E-03   5   4   3   3
  5.0633484739296243E-03   5   4   4   1
  1.5694408833603793E-03   5   4   4   2
  2.1314975965878200E-02   5   4   4   3
  1.7337505537042407E-02   5   4   4   4
 -2.0407819816548748E-03   5   4   5   1
  3.1538449991462517E-03   5   4   5   2
  9.5824492759671205E-03   5   4   5   3
  3.5052917708156481E-02   5   4   5   4
  5.7165451050027005E-01   5   5   1   1
  9.4387299667943649E-03   5   5   2   1
  4.6803579622808833E-01   5   5   2   2
 -2.6544397816159740E-03   5   5   3   1
 -1.4626653878327622E-02   5   5   3   2
  4.5648461674749385E-01   5   5   3   3
 -3.9593665132680502E-03   5   5   4   1
 -1.4941437097331898E-02   5   5   4   2
  4.6467007912236687E-02   5   5   4   3
  3.7049017643351945E-01   5   5   4   4
 -2.7223841688217990E-03   5   5   5   1
 -3.4072733791154913E-02   5   5   5   2
 -6.1926602130023427E-02   5   5   5   3
  1.0946196970635886E-02   5   5   5   4
  4.0645151439402610E-01   5   5   5   5
 -2.1166913707976133E-17   6   1   1   1
 -4.1733618834344673E-18   6   1   2   1
  6.4163938755585525E-19   6   1   2   2
  4.9772557828846476E-19   6   1   3   1
 -7.8720490013518687E-19   6   1   3   2
 -1.6758585660530037E-18   6   1   3   3
  1.5481016861018062E-18   6   1   4   1
 -6.3823614355360543E-20   6   1   4   2
 -1.5021615158420440E-19   6   1   4   3
  5.8667882200131188E-19   6   1   4   4
  1.9873648440620716E-18   6   1   5   1
  6.1856303710737207E-19   6   1   5   2
  1.5800502747466147E-18   6   1   5   3
  1.0697842494684155E-18   6   1   5   4
 -1.4673971037110023E-18   6   1   5   5
  4.1887071669890612E-04   6   1   6   1
 -2.3278390005611851E-17   6   2   1   1
 -1.5760846748976434E-18   6   2   2   1
 -3.1670892483080225E-18   6   2   2   2
  5.2167726047856670E-20   6   2   3   1
 -3.2191725747409632E-18   6   2   3   2
 -6.0001942398849065E-18   6   2   3   3
  9.2328047597711373E-19   6   2   4   1
 -2.0707826218883520E-18   6   2   4   2
 -2.2923631014407499E-18   6   2   4   3
 -5.6320970389279701E-18   6   2   4   4
  1.1520359489646998E-18   6   2   5   1
 -1.2359106212724752E-18   6   2   5   2
  3.4317096164255135E-18   6   2   5   3
 -4.8236552520564428E-19   6   2   5   4
 -5.1440675763771584E-18   6   2   5   5
 -2.1685166133786184E-03   6   2   6   1
  3.7705742500380994E-02   6   2   6   2
 -3.3090862897527342E-18   6   3   1   1
  1.0249913415753263E-18   6   3   2   1
 -1.2374646398950736E-17   6   3   2   2
 -1.2089970610944204E-18   6   3   3   1
  4.6589742293530136E-18   6   3   3   2
  1.9519843551614546E-18   6   3   3   3
 -9.9478698828454223E-19   6   3   4   1
  1.8127271827680542E-18   6   3   4   2
 -4.1835155717467933E-18   6   3   4   3
 -4.4023189767684539E-18   6   3   4   4
  4.7071752451696518E-19   6   3   5   1
  1.5757222018670502E-18   6   3   5   2
 -2.9787364804235396E-18   6   3   5   3
 -4.8346321937663428E-18   6   3   5   4
 -9.1026087476906243E-19   6   3   5   5
 -7.1142236695248388E-04   6   3   6   1
  7.2808578605546891E-03   6   3   6   2
  1.1966485124730766E-02   6   3   6   3
 -1.2144821866874778E-17   6   4   1   1
  7.3021537249899641E-19   6   4   2   1
 -1.4612985116510026E-17   6   4   2   2
  8.6726495068816005E-20   6   4   3   1
  8.3629345219603316E-19   6   4   3   2
 -1.3657000323072712E-17   6   4   3   3
 -8.3731914993016142E-19   6   4   4   1
  2.0113838482119807E-18   6   4   4   2
  1.3632114156974279E-19   6   4   4   3
 -4.0732961869192936E-18   6   4   4   4
 -4.3844296084326966E-19   6   4   5   1
  4.3720062878613830E-18   6   4   5   2
  4.0438412944935010E-18   6   4   5   3
  1.8333037209597446E-18   6   4   5   4
 -9.1303976092509546E-18   6   4   5   5
 -5.3292862572316881E-04   6   4   6   1
  1.5332178774508860E-02   6   4   6   2
  4.2949759289687851E-03   6   4   6   3
  1.1209141202979818E-02   6   4   6   4
 -5.1991599440415095E-18   6   5   1   1
  4.8700368226738135E-19   6   5   2   1
 -8.3045486372392913E-18   6   5   2   2
  5.0428382427952949E-19   6   5   3   1
  1.1031072957186193E-18   6   5   3   2
 -1.0188047558117286E-17   6   5   3   3
 -7.6616706143960398E-19   6   5   4   1
  3.7371824617518230E-18   6   5   4   2
 -2.2833760845821688E-19   6   5   4   3
 -2.6792212839356240E-18   6   5   4   4
 -1.0445899695961604E-18   6   5   5   1
  5.5724780399244347E-18   6   5   5   2
  2.5076518300915137E-18   6   5   5   3
 -5.4268405418207939E-20   6   5   5   4
 -9.7925051475843891E-18   6   5   5   5
  4.9152082408657563E-04   6   5   6   1
  5.9558105731066322E-03   6   5   6   2
  4.2739358073789661E-04   6   5   6   3
  6.6002476644940597E-03   6   5   6   4
  8.9129846832826671E-03   6   5   6   5
  5.9503977294750510E-01   6   6   1   1
 -2.8381322223051913E-03   6   6   2   1
  5.9473175688332025E-01   6   6   2   2
  6.6389198776554467E-03   6   6   3   1
 -4.5686452224822212E-02   6   6   3   2
  4.8611506191416148E-01   6   6   3   3
  3.9210921764779149E-03   6   6   4   1
 -1.7234948177950227E-02   6   6   4   2
  7.0609130048292543E-02   6   6   4   3
  4.0960512056280607E-01   6   6   4   4
 -3.1026789995659510E-03   6   6   5   1
 -3.9449721346844824E-02   6   6   5   2
 -4.9587371350345091E-02   6   6   5   3
  4.2558154484087007E-02   6   6   5   4
  4.3290766420174664E-01   6   6   5   5
  1.2366425942343436E-18   6   6   6   1
 -9.9885143909563921E-18   6   6   6   2
 -1.0825383050501173E-17   6   6   6   3
 -1.1186607296566372E-17   6   6   6   4
 -2.7095394983898895E-18   6   6   6   5
  5.5056478903099904E-01   6   6   6   6
 -3.2741532932250295E-02   7   1   1   1
 -8.0049652890581673E-03   7   1   2   1
  3.1928491361867552E-03   7   1   2   2
  4.1083566769059693E-03   7   1   3   1
 -2.2003410812177554E-03   7   1   3   2
 -5.8705649592105547E-03   7   1   3   3
  4.9123095922874380E-03   7   1   4   1
 -1.1985833810548459E-04   7   1   4   2
 -5.9089700253434877E-04   7   1   4   3
 -4.3185460732175958E-04   7   1   4   4
  1.2916565149210849E-03   7   1   5   1
  5.6399983063941991E-04   7   1   5   2
  5.0883435151500150E-03   7   1   5   3
  2.6569572297145917E-03   7   1   5   4
 -3.7677400649397622E-03   7   1   5   5
  3.7574684055825130E-19   7   1   6   1
 -1.1500368895955141E-18   7   1   6   2
 -1.4324175356315865E-18   7   1   6   3
  3.2233946076650081E-19   7   1   6   4
  4.4583811478942329E-18   7   1   6   5
  2.5580850666325904E-03   7   1   6   6
  4.2180534901686004E-03   7   1   7   1
 -1.6780179905241131E-02   7   2   1   1
 -6.2031747460362741E-03   7   2   2   1
  5.0122175142031086E-02   7   2   2   2
  5.6987771144010246E-03   7   2   3   1
 -3.5939512361318982E-02   7   2   3   2
  1.0771885855086807E-02   7   2   3   3
  5.1176501636190155E-03   7   2   4   1
 -2.3196937816165563E-02   7   2   4   2
  1.2071977809659566E-02   7   2   4   3
  1.5111762094181117E-02   7   2   4   4
 -3.0399880940407603E-04   7   2   5   1
 -5.2455329989857828E-03   7   2   5   2
  1.0225636847937715E-02   7   2   5   3
  9.8903342054843957E-03   7   2   5   4
 -2.6519127568988173E-03   7   2   5   5
  2.7953956327206427E-19   7   2   6   1
 -3.4022492141479079E-18   7   2   6   2
 -3.7760974606621459E-18   7   2   6   3
  4.3806484629836641E-18   7   2   6   4
 -1.8402178188340853E-17   7   2   6   5
 -3.5020073341301442E-03   7   2   6   6
 -9.1075457491622764E-04   7   2   7   1
  3.9392665005631954E-02   7   2   7   2
 -6.9213802678715379E-03   7   3   1   1
  8.0552237397876533E-03   7   3   2   1
 -7.2459896268329757E-02   7   3   2   2
 -1.1247395624465641E-02   7   3   3   1
  3.8178349604041283E-02   7   3   3   2
  2.1633487293441351E-02   7   3   3   3
 -8.0738365765388991E-03   7   3   4   1
  1.3845126129431298E-02   7   3   4   2
 -2.4648433878664860E-02   7   3   4   3
 -9.5528676603976216E-03   7   3   4   4
  3.7896899965024072E-03   7   3   5   1
  4.8531320688200352E-03   7   3   5   2
 -2.6043635903112070E-02   7   3   5   3
 -2.3023740555589617E-02   7   3   5   4
  9.0771534957882049E-03   7   3   5   5
 -3.3217416087397522E-19   7   3   6   1
 -7.7437677718596087E-18   7   3   6   2
 -1.5125833969753254E-18   7   3   6   3
 -9.5374887889422688E-18   7   3   6   4
  4.6322422842636824E-18   7   3   6   5
 -3.3249353029326821E-02   7   3   6   6
 -4.8971197420402506E-03   7   3   7   1
 -1.1392443501572112E-02   7   3   7   2
  5.5056397723348742E-02   7   3   7   3
 -3.9080023145474638E-02   7   4   1   1
  3.9073238750459895E-03   7   4   2   1
 -6.3547577941394540E-02   7   4   2   2
 -3.4304216687988161E-03   7   4   3   1
  1.6452256852564087E-02   7   4   3   2
 -4.5598705839825268E-02   7   4   3   3
 -3.1331927950614901E-03   7   4   4   1
  1.7321510796583964E-02   7   4   4   2
 -1.0025782890253942E-02   7   4   4   3
 -2.5368957519870377E-02   7   4   4   4
  1.6718945392501117E-04   7   4   5   1
  1.3058483023686332E-02   7   4   5   2
  4.0472869675070283E-03   7   4   5   3
 -1.6384115277294845E-04   7   4   5   4
 -2.1667109108773289E-02   7   4   5   5
 -3.5264372659495402E-18   7   4   6   1
  1.3727140407206538E-17   7   4   6   2
  5.5206129224183082E-18   7   4   6   3
 -3.1871336174952057E-17   7   4   6   4
 -1.6089564550726536E-17   7   4   6   5
 -3.6454311562039592E-02   7   4   6   6
 -8.9952039007268336E-04   7   4   7   1
 -1.0725937766584676E-02   7   4   7   2
  5.7020830027192243E-03   7   4   7   3
  1.7860522878839994E-02   7   4   7   4
 -1.1686829248271477E-02   7   5   1   1
 -1.8168674433796787E-03   7   5   2   1
  6.2730953745253337E-06   7   5   2   2
  3.6711956790016695E-03   7   5   3   1
 -1.9484956682056355E-03   7   5   3   2
 -2.8913248167738291E-02   7   5   3   3
  2.2371155184192741E-03   7   5   4   1
  7.5912000078369804E-03   7   5   4   2
  7.8567295205620130E-04   7   5   4   3
 -3.7070921809585879E-03   7   5   4   4
 -1.9709681064075651E-03   7   5   5   1
  5.3098790025247677E-03   7   5   5   2
  1.3660680949171352E-02   7   5   5   3
  1.1933576203696013E-02   7   5   5   4
 -1.0376023476729557E-02   7   5   5   5
  1.2807508008900752E-18   7   5   6   1
 -6.4561969348792437E-18   7   5   6   2
  1.1518736149903258E-18   7   5   6   3
  3.0609525894033915E-18   7   5   6   4
  2.7081661821926175E-17   7   5   6   5
  5.3383369467910734E-03   7   5   6   6
  3.3888393312236451E-03   7   5   7   1
 -7.7878246810663115E-03   7   5   7   2
 -1.7377809516617000E-02   7   5   7   3
  5.3975785225232947E-03   7   5   7   4
  1.6664272300984308E-02   7   5   7   5
  5.7738668341337260E-18   7   6   1   1
 -2.1084266726503140E-19   7   6   2   1
 -6.3742222118348546E-18   7   6   2   2
 -2.2625152392261268E-18   7   6   3   1
  2.9525918946666439E-18   7   6   3   2
  6.7728855143168938E-18   7   6   3   3
  5.0861064685673228E-18   7   6   4   1
 -1.6827660522483904E-17   7   6   4   2
 -6.9827558577285069E-18   7   6   4   3
  2.5080582983831956E-17   7   6   4   4
  2.0379472786401547E-19   7   6   5   1
 -2.3098666740475129E-17   7   6   5   2
 -1.3308401639462902E-17   7   6   5   3
 -4.1773857559431935E-18   7   6   5   4
 -7.0287676677957008E-18   7   6   5   5
  1.3175109158163210E-03   7   6   6   1
 -1.4580024034074901E-02   7   6   6   2
 -1.0001185591813103E-02   7   6   6   3
 -6.6535644136063920E-03   7   6   6   4
  2.0972956580974665E-04   7   6   6   5
 -2.2992417810483709E-17   7   6   6   6
  1.1693296781292271E-17   7   6   7   1
 -1.7339661528754035E-17   7   6   7   2
  4.8459376612598637E-18   7   6   7   3
  3.6689066234581541E-17   7   6   7   4
  5.5896068116680931E-17   7   6   7   5
  1.7298878820819701E-02   7   6   7   6
  6.3641067432741816E-01   7   7   1   1
  8.1938371769624783E-04   7   7   2   1
  5.8867203713463423E-01   7   7   2   2
  3.4388155014642972E-03   7   7   3   1
 -4.6335347685488693E-02   7   7   3   2
  5.3113543450716005E-01   7   7   3   3
  1.7448302408447115E-03   7   7   4   1
 -4.0467001964675717E-02   7   7   4   2
  6.7053505625394833E-02   7   7   4   3
  4.1469737221689829E-01   7   7   4   4
 -2.2363253578341858E-03   7   7   5   1
 -5.5829732430109545E-02   7   7   5   2
 -7.1296096612424462E-02   7   7   5   3
  2.0578930009338334E-02   7   7   5   4
  4.4269028273515576E-01   7   7   5   5
 -1.0491944383280975E-17   7   7   6   1
  7.9297479861772328E-17   7   7   6   2
  1.7771644709415696E-17   7   7   6   3
  7.9806713944263432E-18   7   7   6   4
 -8.8437676575914346E-17   7   7   6   5
  5.0517638756060534E-01   7   7   6   6
 -1.6334476533099718E-03   7   7   7   1
  1.3860689925023262E-02   7   7   7   2
  1.1819897204888435E-03   7   7   7   3
 -4.8683115921718090E-02   7   7   7   4
 -1.6845692253779410E-02   7   7   7   5
  1.3900129174135198E-17   7   7   7   6
  5.3588922980867881E-01   7   7   7   7
  5.9503977294750476E-01   8   8   1   1
 -2.8381322223051818E-03   8   8   2   1
  5.9473175688332003E-01   8   8   2   2
  6.6389198776554553E-03   8   8   3   1
 -4.5686452224822267E-02   8   8   3   2
  4.8611506191416115E-01   8   8   3   3
  3.9210921764779652E-03   8   8   4   1
 -1.7234948177950342E-02   8   8   4   2
  7.0609130048293153E-02   8   8   4   3
  4.0960512056280607E-01   8   8   4   4
 -3.1026789995659337E-03   8   8   5   1
 -3.9449721346844907E-02   8   8   5   2
 -4.9587371350345147E-02   8   8   5   3
  4.2558154484087007E-02   8   8   5   4
  4.3290766420174664E-01   8   8   5   5
  5.9931598976418179E-19   8   8   6   1
 -2.6545869721480685E-18   8   8   6   2
 -1.0302936318669476E-17   8   8   6   3
 -1.9804729158899377E-17   8   8   6   4
 -1.2043209439636417E-17   8   8   6   5
  5.2819079109593803E-01   8   8   6   6
  2.5580850666325899E-03   8   8   7   1
 -3.5020073341300029E-03   8   8   7   2
 -3.3249353029326550E-02   8   8   7   3
 -3.6454311562039377E-02   8   8   7   4
  5.3383369467910335E-03   8   8   7   5
  8.4011818732570095E-17   8   8   7   6
  5.0517638756060546E-01   8   8   7   7
  5.5056478903099926E-01   8   8   8   8
  6.1772380746092270E-01   9   9   1   1
  4.2697450489822767E-03   9   9   2   1
  5.2905906882149645E-01   9   9   2   2
  2.7405742867794764E-03   9   9   3   1
 -2.5729670133399118E-02   9   9   3   2
  4.8090628438870048E-01   9   9   3   3
  1.6548378471234546E-04   9   9   4   1
 -2.2702536302509620E-02   9   9   4   2
  5.8468557428560261E-02   9   9   4   3
  3.8614887472638343E-01   9   9   4   4
 -4.0743314051521545E-03   9   9   5   1
 -4.4310793185669425E-02   9   9   5   2
 -5.9487041930831562E-02   9   9   5   3
  1.7256766007131941E-02   9   9   5   4
  4.2108006840777612E-01   9   9   5   5
  1.8533881161863597E-03   9   9   6   1
 -2.0455762553445399E-02   9   9   6   2
 -1.1584789794486634E-02   9   9   6   3
 -8.3308086123204568E-03   9   9   6   4
 -2.2427552037261062E-03   9   9   6   5
  4.8319056452853920E-01   9   9   6   6
  4.9597491815567231E-04   9   9   7   1
 -1.1749621902792601E-02   9   9   7   2
 -1.1391520828251648E-02   9   9   7   3
 -3.2354580872930638E-02   9   9   7   4
 -2.2796087778987335E-03   9   9   7   5
  1.3683899187340136E-02   9   9   7   6
  4.7681404834796970E-01   9   9   7   7
  4.8319056452853887E-01   9   9   8   8
  4.8082624091896697E-01   9   9   9   9
  2.6335635771517840E-01  10   9   1   1
  5.6091325342741624E-03  10   9   2   1
  1.6173022846866733E-01  10   9   2   2
  4.0218246748419985E-03  10   9   3   1
 -2.7159947545881323E-02  10   9   3   2
  1.1705831984707461E-01  10   9   3   3
  5.4319369736101125E-04  10   9   4   1
 -2.3585594333046331E-02  10   9   4   2
  4.4620178499132565E-02  10   9   4   3
  6.0934487035342870E-02  10   9   4   4
 -5.7181304496927944E-03  10   9   5   1
 -3.7134015012968667E-02  10   9   5   2
 -4.3434482904422200E-02  10   9   5   3
  6.6651608307179491E-03  10   9   5   4
  7.9819157483985312E-02  10   9   5   5
  1.4601937976752523E-03  10   9   6   1
 -6.4949053079783161E-03  10   9   6   2
 -1.2127291611469789E-03  10   9   6   3
 -7.8272821882822855E-04  10   9   6   4
  5.3098109724429151E-03  10   9   6   5
  1.0791688126075427E-01  10   9   6   6
  2.6380131414004105E-04  10   9   7   1
 -5.5160349849617245E-03  10   9   7   2
 -9.6375807985717363E-03  10   9   7   3
 -1.5977267106374093E-02  10   9   7   4
  2.3213509867987697E-04  10   9   7   5
  4.9940520431082380E-03  10   9   7   6
  1.1425430355981717E-01  10   9   7   7
  1.0791688126075422E-01  10   9   8   8
  1.0615693908802211E-01  10   9   9   9
  8.6992042858846888E-02  10   9  10   9
  6.2961004546342825E-01  10  10   1   1
  7.9062730755458648E-03  10  10   2   1
  4.9729457615161926E-01  10  10   2   2
  5.2396576426742593E-03  10  10   3   1
 -3.1166905777060251E-02  10  10   3   2
  4.4642084230356494E-01  10  10   3   3
  5.8921722487604775E-04  10  10   4   1
 -2.8511701950649952E-02  10  10   4   2
  5.6766680778513080E-02  10  10   4   3
  3.6572417253830053E-01  10  10   4   4
 -7.8893555788176906E-03  10  10   5   1
 -4.4178934570004484E-02  10  10   5   2
 -5.2983532274492311E-02  10  10   5   3
  1.1974053460573206E-02  10  10   5   4
  3.9650490215104761E-01  10  10   5   5
  1.8861554051118779E-03  10  10   6   1
 -1.4121544434280231E-02  10  10   6   2
 -7.1362089201186798E-03  10  10   6   3
 -4.9675406899982984E-03  10  10   6   4
 -1.1257441615906884E-03  10  10   6   5
  4.3673395214289218E-01  10  10   6   6
  7.4796410894264611E-05  10  10   7   1
 -7.8095083502105443E-03  10  10   7   2
 -1.0510503319282381E-02  10  10   7   3
 -2.5340388990232166E-02  10  10   7   4
 -1.0817120055775229E-03  10  10   7   5
  8.6404260152316125E-03  10  10   7   6
  4.3865237700401849E-01  10  10   7   7
  4.3673395214289212E-01  10  10   8   8
  4.4318266672815521E-01  10  10   9   9
  9.8237076725982656E-02  10  10  10   9
  4.2747151920203585E-01  10  10  10  10
  4.2286826824030413E-02  11   9   1   1
 -3.8135520626356462E-03  11   9   2   1
  6.2933264972530142E-02  11   9   2   2
  1.0710354944980370E-02  11   9   3   1
 -3.5147130005071400E-02  11   9   3   2
 -2.2407885722725920E-02  11   9   3   3
  6.6475357005703834E-03  11   9   4   1
 -8.4634034415296405E-03  11   9   4   2
  2.1558468670212945E-02  11   9   4   3
  9.6109821194036264E-03  11   9   4   4
 -5.7576134149735564E-03  11   9   5   1
 -2.7203313061130922E-03  11   9   5   2
  1.6639633527077591E-02  11   9   5   3
  2.3417411946831019E-02  11   9   5   4
 -5.8348618708811287E-03  11   9   5   5
  3.6445233993674810E-04  11   9   6   1
 -6.0187552832323974E-03  11   9   6   2
  5.2690150047282518E-03  11   9   6   3
 -3.0866714240488907E-03  11   9   6   4
 -2.3513682411821992E-03  11   9   6   5
  2.3066889883152815E-02  11   9   6   6
  3.3790691349464214E-03  11   9   7   1
  6.8621069991507220E-03  11   9   7   2
 -2.9810421774291003E-02  11   9   7   3
  7.1441192066010596E-04  11   9   7   4
  1.2718363246790342E-02  11   9   7   5
  9.2324097508262790E-04  11   9   7   6
  1.7270671500083307E-03  11   9   7   7
  2.3066889883152801E-02  11   9   8   8
  1.8455962303574483E-03  11   9   9   9
  1.3776532820530839E-02  11   9  10   9
  1.1391563665418124E-02  11   9  10  10
  4.7796486995963054E-02  11   9  11   9
  9.1122191916287745E-02  11  10   1   1
 -1.7821110982995112E-03  11  10   2   1
  8.1496726099053340E-02  11  10   2   2
  8.6237582871644992E-03  11  10   3   1
 -2.6245967062634962E-02  11  10   3   2
  3.0434225386129821E-02  11  10   3   3
  5.2238859418290984E-03  11  10   4   1
 -1.5933078452276109E-02  11  10   4   2
  1.7300943514308494E-02  11  10   4   3
  2.8220675831713848E-02  11  10   4   4
 -5.3206431411684189E-03  11  10   5   1
 -1.2412619376804161E-02  11  10   5   2
  1.5486723948570388E-03  11  10   5   3
  8.5568465639649649E-03  11  10   5   4
  2.0301432876222408E-02  11  10   5   5
  4.8299058441769646E-04  11  10   6   1
 -4.2050665613862096E-03  11  10   6   2
  1.8759756975198977E-03  11  10   6   3
  1.2393812469017808E-04  11  10   6   4
  2.8367227574689537E-04  11  10   6   5
  4.3701898667062151E-02  11  10   6   6
  2.3757479618812301E-03  11  10   7   1
  4.2601997431751673E-03  11  10   7   2
 -1.5001682098402788E-02  11  10   7   3
 -8.2947384330209310E-03  11  10   7   4
  3.9395479417968747E-03  11  10   7   5
  1.4042008766577767E-03  11  10   7   6
  3.9108863807654597E-02  11  10   7   7
  4.3701898667062089E-02  11  10   8   8
  3.4910198170095025E-02  11  10   9   9
  2.6823609232550800E-02  11  10  10   9
  3.4421166289872317E-02  11  10  10  10
  2.0773023560498542E-02  11  10  11   9
  2.1850143321863011E-02  11  10  11  10
  6.0259705548227815E-01  11  11   1   1
  5.4842053436036497E-04  11  11   2   1
  5.5505532549183068E-01  11  11   2   2
  2.3596082088495869E-03  11  11   3   1
 -2.9188119882473156E-02  11  11   3   2
  5.1982906311566690E-01  11  11   3   3
  1.3316291044726527E-03  11  11   4   1
 -2.8844441997163899E-02  11  11   4   2
  5.4091351079281542E-02  11  11   4   3
  4.0366489490174273E-01  11  11   4   4
 -1.6046024104666688E-03  11  11   5   1
 -4.8042560421210898E-02  11  11   5   2
 -6.8420818974049974E-02  11  11   5   3
  1.5020304774214798E-02  11  11   5   4
  4.3594863303465076E-01  11  11   5   5
  1.4336331548486479E-03  11  11   6   1
 -2.1174372786533752E-02  11  11   6   2
 -1.0472508745266843E-02  11  11   6   3
 -7.0261581165091298E-03  11  11   6   4
 -1.7308233652571425E-03  11  11   6   5
  4.9870471874865191E-01  11  11   6   6
 -4.9834432103541858E-04  11  11   7   1
  1.8608097203352595E-03  11  11   7   2
  6.0164365413938352E-03  11  11   7   3
 -4.0833281007371824E-02  11  11   7   4
 -1.3178073520013600E-02  11  11   7   5
  8.8237891869937662E-03  11  11   7   6
  5.0822305206496898E-01  11  11   7   7
  4.9870471874865158E-01  11  11   8   8
  4.8973326267941331E-01  11  11   9   9
  1.0779073913671185E-01  11  11  10   9
  4.4217144503487615E-01  11  11  10  10
 -1.3679405808128153E-02  11  11  11   9
  3.5511284301648169E-02  11  11  11  10
  5.3618152298896637E-01  11  11  11  11
  6.1772380746092281E-01  12  12   1   1
  4.2697450489822628E-03  12  12   2   1
  5.2905906882149645E-01  12  12   2   2
  2.7405742867794764E-03  12  12   3   1
 -2.5729670133399048E-02  12  12   3   2
  4.8090628438870053E-01  12  12   3   3
  1.6548378471240119E-04  12  12   4   1
 -2.2702536302509735E-02  12  12   4   2
  5.8468557428560206E-02  12  12   4   3
  3.8614887472638326E-01  12  12   4   4
 -4.0743314051520435E-03  12  12   5   1
 -4.4310793185669300E-02  12  12   5   2
 -5.9487041930831763E-02  12  12   5   3
  1.7256766007131982E-02  12  12   5   4
  4.2108006840777568E-01  12  12   5   5
 -1.8533881161863577E-03  12  12   6   1
  2.0455762553445389E-02  12  12   6   2
  1.1584789794486620E-02  12  12   6   3
  8.3308086123204447E-03  12  12   6   4
  2.2427552037260754E-03  12  12   6   5
  4.8319056452853920E-01  12  12   6   6
  4.9597491815575644E-04  12  12   7   1
 -1.1749621902792639E-02  12  12   7   2
 -1.1391520828251832E-02  12  12   7   3
 -3.2354580872930805E-02  12  12   7   4
 -2.2796087778990119E-03  12  12   7   5
 -1.3683899187340155E-02  12  12   7   6
  4.7681404834796948E-01  12  12   7   7
  4.8319056452853887E-01  12  12   8   8
  4.4420434158938837E-01  12  12   9   9
  9.8773128520387873E-02  12  12  10   9
  4.1453551229142310E-01  12  12  10  10
  2.7057754521085386E-03  12  12  11   9
  3.3120917208344022E-02  12  12  11  10
  4.5757393470593466E-01  12  12  11  11
  4.8082624091896703E-01  12  12  12  12
  2.6335635771517840E-01  13  12   1   1
  5.6091325342741763E-03  13  12   2   1
  1.6173022846866714E-01  13  12   2   2
  4.0218246748420141E-03  13  12   3   1
 -2.7159947545881330E-02  13  12   3   2
  1.1705831984707457E-01  13  12   3   3
  5.4319369736107825E-04  13  12   4   1
 -2.3585594333046432E-02  13  12   4   2
  4.4620178499132600E-02  13  12   4   3
  6.0934487035342953E-02  13  12   4   4
 -5.7181304496926235E-03  13  12   5   1
 -3.7134015012968660E-02  13  12   5   2
 -4.3434482904422263E-02  13  12   5   3
  6.6651608307181365E-03  13  12   5   4
  7.9819157483985048E-02  13  12   5   5
 -1.4601937976752562E-03  13  12   6   1
  6.4949053079782935E-03  13  12   6   2
  1.2127291611469786E-03  13  12   6   3
  7.8272821882820556E-04  13  12   6   4
 -5.3098109724429316E-03  13  12   6   5
  1.0791688126075419E-01  13  12   6   6
  2.6380131414019436E-04  13  12   7   1
 -5.5160349849618390E-03  13  12   7   2
 -9.6375807985716253E-03  13  12   7   3
 -1.5977267106373774E-02  13  12   7   4
  2.3213509867990012E-04  13  12   7   5
 -4.9940520431082944E-03  13  12   7   6
  1.1425430355981681E-01  13  12   7   7
  1.0791688126075413E-01  13  12   8   8
  9.8773128520387707E-02  13  12   9   9
  6.9078591069953080E-02  13  12  10   9
  9.3156909994401377E-02  13  12  10  10
  1.1615193394693350E-02  13  12  11   9
  2.2316068868724694E-02  13  12  11  10
  1.0065506389373458E-01  13  12  11  11
  1.0615693908802194E-01  13  12  12  12
  8.6992042858846777E-02  13  12  13  12
  6.2961004546342758E-01  13  13   1   1
  7.9062730755458579E-03  13  13   2   1
  4.9729457615161898E-01  13  13   2   2
  5.2396576426742402E-03  13  13   3   1
 -3.1166905777060206E-02  13  13   3   2
  4.4642084230356477E-01  13  13   3   3
  5.8921722487598465E-04  13  13   4   1
 -2.8511701950649886E-02  13  13   4   2
  5.6766680778513018E-02  13  13   4   3
  3.6572417253830025E-01  13  13   4   4
 -7.8893555788178468E-03  13  13   5   1
 -4.4178934570004394E-02  13  13   5   2
 -5.2983532274492311E-02  13  13   5   3
  1.1974053460573172E-02  13  13   5   4
  3.9650490215104706E-01  13  13   5   5
 -1.8861554051118764E-03  13  13   6   1
  1.4121544434280197E-02  13  13   6   2
  7.1362089201186538E-03  13  13   6   3
  4.9675406899982845E-03  13  13   6   4
  1.1257441615906581E-03  13  13   6   5
  4.3673395214289196E-01  13  13   6   6
  7.4796410894154429E-05  13  13   7   1
 -7.8095083502105235E-03  13  13   7   2
 -1.0510503319282398E-02  13  13   7   3
 -2.5340388990232277E-02  13  13   7   4