 &FCI NORB= 10,NELEC= 14,MS2= 0,
  ORBSYM=1,1,1,6,7,5,5,5,3,2,
  ISYM=1,
 /
  2.3089233106779439E+00   1   1   1   1
  1.9198009529651017E-01   2   1   1   1
  3.1218152748609108E-02   2   1   2   1
  7.9092948692310272E-01   2   2   1   1
 -2.1952588665319003E-03   2   2   2   1
  7.5111728048751236E-01   2   2   2   2
  8.3577746481697815E-02   3   1   1   1
  6.4951437283887938E-03   3   1   2   1
  2.5792744281267235E-02   3   1   2   2
  1.4294890141232690E-02   3   1   3   1
 -6.6494573944735430E-02   3   2   1   1
  7.2839768772559226E-03   3   2   2   1
 -1.0889932265440616E-01   3   2   2   2
 -1.2363911002924687E-02   3   2   3   1
  5.1034598000518225E-02   3   2   3   2
  6.8660735376815862E-01   3   3   1   1
  9.0508492998911463E-03   3   3   2   1
  5.4342585816277778E-01   3   3   2   2
 -2.7052249373920173E-03   3   3   3   1
 -1.6440063102494129E-02   3   3   3   2
  5.8586051896599656E-01   3   3   3   3
  7.2952238781973355E-01   4   4   1   1
  5.9822359460372544E-03   4   4   2   1
  5.9789226931112860E-01   4   4   2   2
  5.3656276714507747E-03   4   4   3   1
 -2.9332420930139991E-02   4   4   3   2
  5.4165131311092718E-01   4   4   3   3
  6.0614696146022662E-01   4   4   4   4
  7.2952238781973355E-01   5   5   1   1
  5.9822359460372544E-03   5   5   2   1
  5.9789226931112860E-01   5   5   2   2
  5.3656276714507747E-03   5   5   3   1
 -2.9332420930139991E-02   5   5   3   2
  5.4165131311092718E-01   5   5   3   3
  5.5588369443360297E-01   5   5   4   4
  6.0614696146022662E-01   5   5   5   5
  2.3084897263853654E+00   6   6   1   1
  1.9185648410752770E-01   6   6   2   1
  7.9100939657224856E-01   6   6   2   2
  8.3638476395619776E-02   6   6   3   1
 -6.6545602758514399E-02   6   6   3   2
  6.8654766256980448E-01   6   6   3   3
  7.2955344202028638E-01   6   6   4   4
  7.2955344202028638E-01   6   6   5   5
  2.3080574627141694E+00   6   6   6   6
  1.9113861365079413E-01   7   6   1   1
  2.5791334038380818E-02   7   6   2   1
  1.8533613328760325E-02   7   6   2   2
  1.5222950058359207E-02   7   6   3   1
 -4.8508848180257268E-03   7   6   3   2
  3.6920991679013702E-03   7   6   3   3
  7.7639864406095034E-03   7   6   4   4
  7.7639864406095034E-03   7   6   5   5
  1.9110119995228650E-01   7   6   6   6
  2.8820824005946533E-02   7   6   7   6
  6.6794884430041612E-01   7   7   1   1
  1.2656749172872121E-02   7   7   2   1
  5.1290257746608958E-01   7   7   2   2
 -4.2704480551427823E-03   7   7   3   1
  7.9479551014616234E-04   7   7   3   2
  5.5826034459411833E-01   7   7   3   3
  5.3686220892572289E-01   7   7   4   4
  5.3686220892572289E-01   7   7   5   5
  6.6789117329055936E-01   7   7   6   6
  4.8208265353636842E-03   7   7   7   6
  5.4649648141155960E-01   7   7   7   7
  1.3172395024482214E-01   8   6   1   1
  2.8315053229011365E-02   8   6   2   1
 -2.2382583079143481E-02   8   6   2   2
 -6.1975614376010516E-03   8   6   3   1
  1.6737483720592628E-02   8   6   3   2
  1.2202500966156890E-02   8   6   3   3
  3.6635059903464159E-04   8   6   4   4
  3.6635059903464159E-04   8   6   5   5
  1.3152092795483525E-01   8   6   6   6
  1.4232729528760854E-02   8   6   7   6
  1.6337906152575743E-02   8   6   7   7
  3.7380889775198912E-02   8   6   8   6
  4.8441769554836846E-02   8   7   1   1
 -2.9394014133499796E-03   8   7   2   1
  7.3086666597248190E-02   8   7   2   2
  1.2156864146701005E-02   8   7   3   1
 -2.8977965642395229E-02   8   7   3   2
 -2.7861460509113967E-02   8   7   3   3
  2.8169731324220439E-02   8   7   4   4
  2.8169731324220439E-02   8   7   5   5
  4.8514988427534433E-02   8   7   6   6
  7.4507573614962276E-03   8   7   7   6
 -2.0181284061717198E-02   8   7   7   7
 -1.3700317059542725E-02   8   7   8   6
  4.7629616718183262E-02   8   7   8   7
  8.9911009564126498E-01   8   8   1   1
  5.5549660652938829E-03   8   8   2   1
  7.2667928369817891E-01   8   8   2   2
  2.2937133907119781E-02   8   8   3   1
 -8.7367427491037652E-02   8   8   3   2
  5.9506291691194879E-01   8   8   3   3
  6.2300216244039097E-01   8   8   4   4
  6.2300216244039097E-01   8   8   5   5
  8.9918161306889755E-01   8   8   6   6
  2.1097984775991348E-02   8   8   7   6
  5.6060500493032295E-01   8   8   7   7
 -1.3412196984675523E-02   8   8   8   6
  4.4838995216275324E-02   8   8   8   7
  7.6160291736673014E-01   8   8   8   8
  6.8963010859092644E-01   9   9   1   1
  1.4296214192280228E-03   9   9   2   1
  6.1956117067395922E-01   9   9   2   2
  9.0409798820306336E-03   9   9   3   1
 -4.7076849847814517E-02   9   9   3   2
  5.1851828716316728E-01   9   9   3   3
  5.4250328002391623E-01   9   9   4   4
  5.8835595039913491E-01   9   9   5   5
  6.8967325750695307E-01   9   9   6   6
  7.7868118467560865E-03   9   9   7   6
  5.1066937521298295E-01   9   9   7   7
 -6.5556280008188389E-03   9   9   8   6
  4.1499353391963978E-02   9   9   8   7
  6.2166196532332063E-01   9   9   8   8
  5.8966079144846562E-01   9   9   9   9
  6.8963010859092644E-01  10  10   1   1
  1.4296214192280228E-03  10  10   2   1
  6.1956117067395922E-01  10  10   2   2
  9.0409798820306336E-03  10  10   3   1
 -4.7076849847814517E-02  10  10   3   2
  5.1851828716316728E-01  10  10   3   3
  5.8835595039913491E-01  10  10   4   4
  5.4250328002391623E-01  10  10   5   5
  6.8967325750695307E-01  10  10   6   6
  7.7868118467560865E-03  10  10   7   6
  5.1066937521298295E-01  10  10   7   7
 -6.5556280008188389E-03  10  10   8   6
  4.1499353391963978E-02  10  10   8   7
  6.2166196532332063E-01  10  10   8   8
  5.4142686169021659E-01  10  10   9   9
  5.8966079144846562E-01  10  10  10  10
  2.5131633513311609E-02   5   4   5   4
  2.2926335187609188E-02  10   9   5   4
  2.4116964879124427E-02  10   9  10   9
  1.3873417077977344E-02   4   1   4   1
 -1.3427698453382876E-02   4   2   4   1
  4.3951618158611559E-02   4   2   4   2
 -8.6707185050104475E-03   4   3   4   1
  2.5044956704916747E-02   4   3   4   2
  3.8449734819455725E-02   4   3   4   3
  1.1321468711080179E-02  10   6   4   1
 -1.1398273778688045E-02  10   6   4   2
 -7.0547239416908153E-03  10   6   4   3
  9.2515057798800097E-03  10   6  10   6
 -1.3434546095330627E-02  10   7   4   1
  4.2566540820053692E-02  10   7   4   2
  3.9258534308706294E-02  10   7   4   3
 -1.1219951259388248E-02  10   7  10   6
  5.0556612280814144E-02  10   7  10   7
 -9.9720472684210124E-03  10   8   4   1
  3.4120563513251337E-02  10   8   4   2
  4.7489246382544292E-03  10   8   4   3
 -8.6468898515592810E-03  10   8  10   6
  2.3924489416842908E-02  10   8  10   7
  3.5495607111323019E-02  10   8  10   8
  1.3873417077977344E-02   5   1   5   1
 -1.3427698453382876E-02   5   2   5   1
  4.3951618158611559E-02   5   2   5   2
 -8.6707185050104475E-03   5   3   5   1
  2.5044956704916747E-02   5   3   5   2
  3.8449734819455725E-02   5   3   5   3
  1.1321468711080179E-02   9   6   5   1
 -1.1398273778688045E-02   9   6   5   2
 -7.0547239416908153E-03   9   6   5   3
  9.2515057798800097E-03   9   6   9   6
 -1.3434546095330627E-02   9   7   5   1
  4.2566540820053692E-02   9   7   5   2
  3.9258534308706294E-02   9   7   5   3
 -1.1219951259388248E-02   9   7   9   6
  5.0556612280814144E-02   9   7   9   7
 -9.9720472684210124E-03   9   8   5   1
  3.4120563513251337E-02   9   8   5   2
  4.7489246382544292E-03   9   8   5   3
 -8.6468898515592810E-03   9   8   9   6
  2.3924489416842908E-02   9   8   9   7
  3.5495607111323019E-02   9   8   9   8
  1.8953600226768241E-02   9   4   9   4
  1.8953600226768241E-02  10   5   9   4
  1.8953600226768241E-02  10   5  10   5
  1.8226932749051115E+00   6   1   6   1
  1.9918613936908428E-01   6   2   6   1
  3.0947530275604488E-02   6   2   6   2
  6.8241372851412491E-02   6   3   6   1
  6.9747151793304700E-03   6   3   6   2
  1.3313631584880173E-02   6   3   6   3
  1.8403180831972094E-01   7   1   6   1
  2.5999398495935050E-02   7   1   6   2
  1.4772588373233256E-02   7   1   6   3
  2.8611820258015033E-02   7   1   7   1
  1.6993747910204290E-01   7   2   6   1
  8.3351902436061970E-03   7   2   6   2
 -8.0410818103513978E-04   7   2   6   3
  4.7762761842171618E-03   7   2   7   1
  5.5154704587325944E-02   7   2   7   2
  2.5245329623789120E-01   7   3   6   1
  1.4076227882310921E-02   7   3   6   2
 -1.4970290097780437E-02   7   3   6   3
 -2.4270860012758060E-03   7   3   7   1
  9.2148421376592543E-02   7   3   7   2
  2.2477499473357709E-01   7   3   7   3
  1.5031325465216908E-01   8   1   6   1
  2.7820317806310755E-02   8   1   6   2
 -5.0823905779361755E-03   8   1   6   3
  1.4777913047304544E-02   8   1   7   1
  8.1189172159442709E-03   8   1   7   2
  2.6374808742031478E-02   8   1   7   3
  3.6246971598374936E-02   8   1   8   1
  2.2723581381769481E-01   8   2   6   1
  5.1497892466629627E-03   8   2   6   2
  1.0811216256393981E-02   8   2   6   3
  1.1476755530713680E-02   8   2   7   1
  5.8746077219915489E-02   8   2   7   2
  5.7886560561413655E-02   8   2   7   3
 -5.7704562464201033E-03   8   2   8   1
  1.0670492223787355E-01   8   2   8   2
 -1.9191742237960197E-01   8   3   6   1
 -6.9303260639529476E-03   8   3   6   2
  3.4625370799549549E-03   8   3   6   3
 -1.6708907402925126E-03   8   3   7   1
 -5.3451880367508905E-02   8   3   7   2
 -1.2400800723735794E-01   8   3   7   3
 -9.6453032840021907E-03   8   3   8   1
 -5.8513312125035639E-02   8   3   8   2
  9.0767800494519213E-02   8   3   8   3
  2.7412948564650452E-01   9   5   6   1
  8.9622548732815922E-03   9   5   6   2
 -3.8793829955110176E-03   9   5   6   3
  2.6735058912173443E-03   9   5   7   1
  9.5305597006576467E-02   9   5   7   2
  1.5756934352915575E-01   9   5   7   3
  9.9792810273641730E-03   9   5   8   1
  1.0228576879224674E-01   9   5   8   2
 -9.0952090040642392E-02   9   5   8   3
  1.8675641604412246E-01   9   5   9   5
  2.7412948564650452E-01  10   4   6   1
  8.9622548732815922E-03  10   4   6   2
 -3.8793829955110176E-03  10   4   6   3
  2.6735058912173443E-03  10   4   7   1
  9.5305597006576467E-02  10   4   7   2
  1.5756934352915575E-01  10   4   7   3
  9.9792810273641730E-03  10   4   8   1
  1.0228576879224674E-01  10   4   8   2
 -9.0952090040642392E-02  10   4   8   3
  1.4884921559058595E-01  10   4   9   5
  1.8675641604412246E-01  10   4  10   4
  1.4567111908861074E-02   6   5   6   5
 -1.8566563489868775E-02   7   5   6   5
  8.2375544175149543E-02   7   5   7   5
 -1.2739919881105082E-02   8   5   6   5
  3.6330365075423698E-02   8   5   7   5
  4.7521307997818799E-02   8   5   8   5
  1.1915060370913231E-02   9   1   6   5
 -1.5611615372830328E-02   9   1   7   5
 -1.1230858770361455E-02   9   1   8   5
  9.7715262775260325E-03   9   1   9   1
 -1.8956334811334186E-02   9   2   6   5
  7.4071489057435977E-02   9   2   7   5
  6.2199177836337473E-02   9   2   8   5
 -1.6719198625604021E-02   9   2   9   1
  1.0564607778614254E-01   9   2   9   2
 -6.2515413556492308E-03   9   3   6   5
  3.7663202638440717E-02   9   3   7   5
 -8.3460473382562794E-05   9   3   8   5
 -4.8701786402887467E-03   9   3   9   1
  1.4022129696004255E-02   9   3   9   2
  2.8098903550741936E-02   9   3   9   3
  1.4567111908861074E-02   6   4   6   4
 -1.8566563489868775E-02   7   4   6   4
  8.2375544175149543E-02   7   4   7   4
 -1.2739919881105082E-02   8   4   6   4
  3.6330365075423698E-02   8   4   7   4
  4.7521307997818799E-02   8   4   8   4
  1.1915060370913231E-02  10   1   6   4
 -1.5611615372830328E-02  10   1   7   4
 -1.1230858770361455E-02  10   1   8   4
  9.7715262775260325E-03  10   1  10   1
 -1.8956334811334186E-02  10   2   6   4
  7.4071489057435977E-02  10   2   7   4
  6.2199177836337473E-02  10   2   8   4
 -1.6719198625604021E-02  10   2  10   1
  1.0564607778614254E-01  10   2  10   2
 -6.2515413556492308E-03  10   3   6   4
  3.7663202638440717E-02  10   3   7   4
 -8.3460473382562794E-05  10   3   8   4
 -4.8701786402887467E-03  10   3  10   1
  1.4022129696004255E-02  10   3  10   2
  2.8098903550741936E-02  10   3  10   3
 -2.7579685141631575E+01   1   1   0   0
 -4.6447137996830334E-01   2   1   0   0
 -9.5762281442523900E+00   2   2   0   0
 -2.6400007986910135E-01   3   1   0   0
  7.1180008721068866E-01   3   2   0   0
 -7.7913890092383227E+00   3   3   0   0
 -7.8490579307026902E+00   4   4   0   0
 -7.8490579307026902E+00   5   5   0   0
 -2.7578916136183931E+01   6   6   0   0
 -4.9884112022281513E-01   7   6   0   0
 -7.6861911079843033E+00   7   7   0   0
 -2.3197940588321853E-01   8   6   0   0
 -4.1858236625484402E-01   8   7   0   0
 -8.3169940030382215E+00   8   8   0   0
 -8.0794614789261487E+00   9   9   0   0
 -8.0794614789261487E+00  10  10   0   0
  2.3786407766990290E+01   0   0   0   0