    -----------------------------------------------------------------------
          PSI4: An Open-Source Ab Initio Electronic Structure Package
                              PSI 4.0.0-beta3 Driver

    J. M. Turney, A. C. Simmonett, R. M. Parrish, E. G. Hohenstein,
    F. A. Evangelista, J. T. Fermann, B. J. Mintz, L. A. Burns, J. J. Wilke,
    M. L. Abrams, N. J. Russ, M. L. Leininger, C. L. Janssen, E. T. Seidl,
    W. D. Allen, H. F. Schaefer, R. A. King, E. F. Valeev, C. D. Sherrill,
    and T. D. Crawford, WIREs Comput. Mol. Sci., (2011) (doi: 10.1002/wcms.93)

                         Additional Contributions by
    A. E. DePrince, M. Saitow, U. Bozkaya, A. Yu. Sokolov
    -----------------------------------------------------------------------

    Process ID:   5099
    PSI4DATADIR: /usr/local/psi4/share/psi

    Using LocalCommunicator (Number of processes = 1)

    Memory level set to 256.000 MB

  ==> Input File <==

--------------------------------------------------------------------------
molecule N2 {
N          0.000000000000     0.000000000000     0.000000000000
N          0.000000000000     0.000000000000     2.060000000000
units au
}

plugin_load("./mointegrals.so")

set basis sto-3g
set mointegrals print 1
set reference rhf

#optimize('scf')
scf()

plugin("mointegrals.so")


--------------------------------------------------------------------------
./mointegrals.so loaded.

*** tstart() called on seb-latitude
*** at Thu Mar  7 11:55:16 2013

	There are an even number of electrons - assuming singlet.
	Specify the multiplicity with the MULTP option in the
	input if this is incorrect


         ---------------------------------------------------------
                                   SCF
            by Justin Turney, Rob Parrish, and Andy Simmonett
                              RHF Reference
                        1 Threads,    256 MiB Core
         ---------------------------------------------------------

  ==> Geometry <==

    Molecular point group: d2h
    Full point group: D_inf_h

    Geometry (in Bohr), charge = 0, multiplicity = 1:

       Center              X                  Y                   Z       
    ------------   -----------------  -----------------  -----------------
           N          0.000000000000     0.000000000000    -1.030000000000
           N          0.000000000000     0.000000000000     1.030000000000

  Running in d2h symmetry.

  Nuclear repulsion =   23.786407766990290

  Charge       = 0
  Multiplicity = 1
  Electrons    = 14
  Nalpha       = 7
  Nbeta        = 7

  ==> Algorithm <==

  SCF Algorithm Type is PK.
  DIIS enabled.
  MOM disabled.
  Fractional occupation disabled.
  Guess Type is CORE.
  Energy threshold   = 1.00e-08
  Density threshold  = 1.00e-06
  Integral threshold = 0.00e+00

  ==> Primary Basis <==

  Basis Set: sto-3g
    Number of shells: 6
    Number of basis function: 10
    Number of Cartesian functions: 10
    Spherical Harmonics?: true
    Max angular momentum: 1

  ==> Pre-Iterations <==

   -------------------------------------------------------
    Irrep   Nso     Nmo     Nalpha   Nbeta   Ndocc  Nsocc
   -------------------------------------------------------
     Ag         3       3       0       0       0       0
     B1g        0       0       0       0       0       0
     B2g        1       1       0       0       0       0
     B3g        1       1       0       0       0       0
     Au         0       0       0       0       0       0
     B1u        3       3       0       0       0       0
     B2u        1       1       0       0       0       0
     B3u        1       1       0       0       0       0
   -------------------------------------------------------
    Total      10      10       7       7       7       0
   -------------------------------------------------------

  ==> Integral Setup <==

 MINTS: Wrapper to libmints.
   by Justin Turney

   Calculation information:
      Number of atoms:                   2
      Number of AO shells:               6
      Number of SO shells:               3
      Number of primitives:             18
      Number of atomic orbitals:        10
      Number of basis functions:        10

      Number of irreps:                  8
      Number of functions per irrep: [   3    0    1    1    0    3    1    1 ]

      Overlap, kinetic, potential, dipole, and quadrupole integrals
        stored in file 35.

      Computing two-electron integrals...done
      Computed 292 non-zero two-electron integrals.
        Stored in file 33.

	Batch   1 pq = [       0,      16] index = [             0,136]
  ==> DiskJK: Disk-Based J/K Matrices <==

    J tasked:                  Yes
    K tasked:                  Yes
    wK tasked:                  No
    Memory (MB):               183
    Schwarz Cutoff:          0E+00

  Minimum eigenvalue in the overlap matrix is 1.5785510873E-01.
  Using Symmetric Orthogonalization.
  SCF Guess: Core (One-Electron) Hamiltonian.

  Initial RHF energy:   -73.74521294420052

  ==> Iterations <==

                        Total Energy        Delta E     Density RMS

   @RHF iter   1:  -104.05669452588512   -3.03115e+01   0.00000e+00 
   @RHF iter   2:  -106.73041102336944   -2.67372e+00   1.15892e+00 DIIS
   @RHF iter   3:  -106.75350824476024   -2.30972e-02   5.62234e-02 DIIS
   @RHF iter   4:  -106.75403922594589   -5.30981e-04   7.54156e-03 DIIS
   @RHF iter   5:  -106.75404432176114   -5.09582e-06   7.70914e-04 DIIS
   @RHF iter   6:  -106.75404436029359   -3.85324e-08   7.33864e-05 DIIS
   @RHF iter   7:  -106.75404436032295   -2.93596e-11   1.83911e-06 DIIS

  ==> Post-Iterations <==

	Orbital Energies (a.u.)
	-----------------------

	Doubly Occupied:                                                      

	   1Ag   -15.450975     1B1u  -15.450432     2Ag    -1.350546  
	   2B1u   -0.640728     1B3u   -0.610467     1B2u   -0.534369  
	   1B2g   -0.166307  

	Virtual:                                                              

	   3Ag    -0.073782     1B3g    0.314181     3B1u    1.225920  

	Final Occupation by Irrep:
	         Ag   B1g   B2g   B3g    Au   B1u   B2u   B3u 
	DOCC [     2,    0,    1,    0,    0,    2,    1,    1 ]

  Energy converged.

  @RHF Final Energy:  -106.75404436032295

   => Energetics <=

    Nuclear Repulsion Energy =             23.7864077669902905
    One-Electron Energy =                -192.6732547162005176
    Two-Electron Energy =                  62.1328025888872872
    DFT Exchange-Correlation Energy =       0.0000000000000000
    Empirical Dispersion Energy =           0.0000000000000000
    Total Energy =                       -106.7540443603229363


Properties computed using the SCF density matrix


Properties will be evaluated at   0.000000,   0.000000,   0.000000 Bohr
  ==> Properties <==

  Nuclear Dipole Moment: (a.u.)
     X:     0.0000      Y:     0.0000      Z:     0.0000

  Electronic Dipole Moment: (a.u.)
     X:     0.0000      Y:     0.0000      Z:     0.0000

  Dipole Moment: (a.u.)
     X:     0.0000      Y:     0.0000      Z:     0.0000     Total:     0.0000

  Dipole Moment: (Debye)
     X:     0.0000      Y:     0.0000      Z:     0.0000     Total:     0.0000


  Saving occupied orbitals to File 180.

*** tstop() called on seb-latitude at Thu Mar  7 11:55:17 2013
Module time:
	user time   =       0.04 seconds =       0.00 minutes
	system time =       0.00 seconds =       0.00 minutes
	total time  =          1 seconds =       0.02 minutes
Total time:
	user time   =       0.04 seconds =       0.00 minutes
	system time =       0.00 seconds =       0.00 minutes
	total time  =          1 seconds =       0.02 minutes
Reading options from the MOINTEGRALS block
Calling plugin mointegrals.so.
	Presorting SO-basis two-electron integrals.
	Sorting File: SO Ints (nn|nn) nbuckets = 1
	Transforming the one-electron integrals and constructing Fock matrices
	Starting first half-transformation.
	Sorting half-transformed integrals.
	First half integral transformation complete.
	Starting second half-transformation.
	Two-electron integral transformation complete.
  ## MO OEI (Symmetry 0) ##
  Irrep: 1 Size: 3 x 3

                 1            2            3

    1  -27.5793916   -0.4789636   -0.2515273
    2   -0.4789636   -9.4494556    0.8458049
    3   -0.2515273    0.8458049   -7.9184551



  Irrep: 2 Size: 0 x 0

	(empty)

  Irrep: 3 Size: 1 x 1

                 1

    1   -7.8490579



  Irrep: 4 Size: 1 x 1

                 1

    1   -7.8490579



  Irrep: 5 Size: 0 x 0

	(empty)

  Irrep: 6 Size: 3 x 3

                 1            2            3

    1  -27.5783940   -0.5205558   -0.2053077
    2   -0.5205558   -7.7214052   -0.4424791
    3   -0.2053077   -0.4424791   -8.2823021



  Irrep: 7 Size: 1 x 1

                 1

    1   -8.0794615



  Irrep: 8 Size: 1 x 1

                 1

    1   -8.0794615



****  Molecular Integrals For CheMPS Start Here 
Symmetry Label = d2h 
Nirreps = 8 
Nuclear Repulsion Energy = 23.786407766990290468811508617363870143890380859375 
Number Of Molecular Orbitals = 10 
Irreps Of Molecular Orbitals = 
0 0 0 2 3 5 5 5 6 7 
DOCC =  2  0  1  0  0  2  1  1 
SOCC =  0  0  0  0  0  0  0  0 
****  MO OEI 
0 0 -27.579391585394429142752414918504655361175537109375 
0 1 -0.478963576066123442043220848063356243073940277100 
0 2 -0.251527284343033674662848397929337806999683380127 
1 0 -0.478963576066123442043220848063356243073940277100 
1 1 -9.449455616615862751928034413140267133712768554688 
1 2 0.845804917628293018161400596000021323561668395996 
2 0 -0.251527284343033674662848397929337806999683380127 
2 1 0.845804917628293018161400596000021323561668395996 
2 2 -7.918455093111998799315642827423289418220520019531 
3 3 -7.849057930702690200064353120978921651840209960938 
4 4 -7.849057930702690200064353120978921651840209960938 
5 5 -27.578393963750123418776638573035597801208496093750 
5 6 -0.520555790199187962130622508993837982416152954102 
5 7 -0.205307748582708227136350842556566931307315826416 
6 5 -0.520555790199187962130622508993837982416152954102 
6 6 -7.721405196774972168327622057404369115829467773438 
6 7 -0.442479129462027609420715634769294410943984985352 
7 5 -0.205307748582708227136350842556566931307315826416 
7 6 -0.442479129462027609420715634769294410943984985352 
7 7 -8.282302086681369246434769593179225921630859375000 
8 8 -8.079461478926148743084922898560762405395507812500 
9 9 -8.079461478926148743084922898560762405395507812500 
****  MO TEI 
0 0 0 0 2.308838012539026429692512465408071875572204589844 
0 0 0 1 0.197672669726750266372405917536525521427392959595 
0 0 0 2 0.069870367581774381338099999538826523348689079285 
0 0 1 0 0.197672669726750266372405917536525521427392959595 
0 0 1 1 0.779323179820998523936737001349683851003646850586 
0 0 1 2 -0.073749017099224753457598069417144870385527610779 
0 0 2 0 0.069870367581774381338099999538826523348689079285 
0 0 2 1 -0.073749017099224753457598069417144870385527610779 
0 0 2 2 0.698202009098557896393799637735355645418167114258 
0 0 3 3 0.729513647523651442838854563888162374496459960938 
0 0 4 4 0.729513647523651442838854563888162374496459960938 
0 0 5 5 2.308275130700563781971368371159769594669342041016 
0 0 5 6 0.197315094362250698090122114081168547272682189941 
0 0 5 7 0.123505200009521629023190314455860061571002006531 
0 0 6 5 0.197315094362250698090122114081168547272682189941 
0 0 6 6 0.672473382943877151518563550780527293682098388672 
0 0 6 7 0.057526431350524848129524002615653444081544876099 
0 0 7 5 0.123505200009521629023190314455860061571002006531 
0 0 7 6 0.057526431350524848129524002615653444081544876099 
0 0 7 7 0.894724784045933696496888387628132477402687072754 
0 0 8 8 0.689607638237971776185020189586794003844261169434 
0 0 9 9 0.689607638237971776185020189586794003844261169434 
0 1 0 0 0.197672669726750238616830301907612010836601257324 
0 1 0 1 0.031995811330089787838382164864015066996216773987 
0 1 0 2 0.005306535332714803869513797707213598187081515789 
0 1 1 0 0.031995811330089787838382164864015066996216773987 
0 1 1 1 0.001071937553475745073111591310066614823881536722 
0 1 1 2 0.006834493607876654039379182847824267810210585594 
0 1 2 0 0.005306535332714803869513797707213598187081515789 
0 1 2 1 0.006834493607876654039379182847824267810210585594 
0 1 2 2 0.007729479000289764777098522330334162688814103603 
0 1 3 3 0.006392519698308164050049029469846573192626237869 
0 1 4 4 0.006392519698308164050049029469846573192626237869 
0 1 5 5 0.197526876133625961529105552472174167633056640625 
0 1 5 6 0.028088563882880075023296129188565828371793031693 
0 1 5 7 0.026481345490979191215075161380809731781482696533 
0 1 6 5 0.028088563882880075023296129188565828371793031693 
0 1 6 6 0.012085437904839737080497918952914915280416607857 
0 1 6 7 -0.002067151518865779479677824426175902772229164839 
0 1 7 5 0.026481345490979191215075161380809731781482696533 
0 1 7 6 -0.002067151518865779479677824426175902772229164839 
0 1 7 7 0.007596395968480089237739871776966538163833320141 
0 1 8 8 0.002201110386418706973965520035108056617900729179 
0 1 9 9 0.002201110386418706973965520035108056617900729179 
0 2 0 0 0.069870367581774367460312191724369768053293228149 
0 2 0 1 0.005306535332714797797981631788388767745345830917 
0 2 0 2 0.013534336744889893799914659666683292016386985779 
0 2 1 0 0.005306535332714797797981631788388767745345830917 
0 2 1 1 0.023863005722635496214101280543218308594077825546 
0 2 1 2 -0.015149026470218268300427233441496355226263403893 
0 2 2 0 0.013534336744889893799914659666683292016386985779 
0 2 2 1 -0.015149026470218268300427233441496355226263403893 
0 2 2 2 -0.000985605625854271260449790403868064458947628736 
0 2 3 3 0.005096379397472054241513550465469961636699736118 
0 2 4 4 0.005096379397472054241513550465469961636699736118 
0 2 5 5 0.069950317959323077277034030885261017829179763794 
0 2 5 6 0.013042391857587003548002435593389236601069569588 
0 2 5 7 -0.008848898926724886940253789191501709865406155586 
0 2 6 5 0.013042391857587003548002435593389236601069569588 
0 2 6 6 -0.004073321351743164515923911750405750353820621967 
0 2 6 7 0.013504299978936243689653373678538628155365586281 
0 2 7 5 -0.008848898926724886940253789191501709865406155586 
0 2 7 6 0.013504299978936243689653373678538628155365586281 
0 2 7 7 0.021728434864947847315885809393876115791499614716 
0 2 8 8 0.009093734329502002958212081296096584992483258247 
0 2 9 9 0.009093734329502002958212081296096584992483258247 
1 0 0 0 0.197672669726750238616830301907612010836601257324 
1 0 0 1 0.031995811330089787838382164864015066996216773987 
1 0 0 2 0.005306535332714803869513797707213598187081515789 
1 0 1 0 0.031995811330089787838382164864015066996216773987 
1 0 1 1 0.001071937553475745073111591310066614823881536722 
1 0 1 2 0.006834493607876654039379182847824267810210585594 
1 0 2 0 0.005306535332714803869513797707213598187081515789 
1 0 2 1 0.006834493607876654039379182847824267810210585594 
1 0 2 2 0.007729479000289764777098522330334162688814103603 
1 0 3 3 0.006392519698308164050049029469846573192626237869 
1 0 4 4 0.006392519698308164050049029469846573192626237869 
1 0 5 5 0.197526876133625961529105552472174167633056640625 
1 0 5 6 0.028088563882880075023296129188565828371793031693 
1 0 5 7 0.026481345490979191215075161380809731781482696533 
1 0 6 5 0.028088563882880075023296129188565828371793031693 
1 0 6 6 0.012085437904839737080497918952914915280416607857 
1 0 6 7 -0.002067151518865779479677824426175902772229164839 
1 0 7 5 0.026481345490979191215075161380809731781482696533 
1 0 7 6 -0.002067151518865779479677824426175902772229164839 
1 0 7 7 0.007596395968480089237739871776966538163833320141 
1 0 8 8 0.002201110386418706973965520035108056617900729179 
1 0 9 9 0.002201110386418706973965520035108056617900729179 
1 1 0 0 0.779323179820998523936737001349683851003646850586 
1 1 0 1 0.001071937553475745073111591310066614823881536722 
1 1 0 2 0.023863005722635499683548232496832497417926788330 
1 1 1 0 0.001071937553475745073111591310066614823881536722 
1 1 1 1 0.714818047528054889561133222741773352026939392090 
1 1 1 2 -0.114178259189952557850489256452419795095920562744 
1 1 2 0 0.023863005722635499683548232496832497417926788330 
1 1 2 1 -0.114178259189952557850489256452419795095920562744 
1 1 2 2 0.558493675657887211905006097367731854319572448730 
1 1 3 3 0.592790942524970221327862418547738343477249145508 
1 1 4 4 0.592790942524970221327862418547738343477249145508 
1 1 5 5 0.779422117894948196514803839818341657519340515137 
1 1 5 6 0.017030430835190839278237007192728924565017223358 
1 1 5 7 -0.020241014769327509564833533772798546124249696732 
1 1 6 5 0.017030430835190839278237007192728924565017223358 
1 1 6 6 0.519089013715816616212350709247402846813201904297 
1 1 6 7 0.075469637514340576212035216485674027353525161743 
1 1 7 5 -0.020241014769327509564833533772798546124249696732 
1 1 7 6 0.075469637514340576212035216485674027353525161743 
1 1 7 7 0.705992162095531949894677836709888651967048645020 
1 1 8 8 0.611309098178606569184978525299811735749244689941 
1 1 9 9 0.611309098178606569184978525299811735749244689941 
1 2 0 0 -0.073749017099224628557507799087034072726964950562 
1 2 0 1 0.006834493607876678325507846523123589577153325081 
1 2 0 2 -0.015149026470218261361533329534267977578565478325 
1 2 1 0 0.006834493607876678325507846523123589577153325081 
1 2 1 1 -0.114178259189952543972701448637963039800524711609 
1 2 1 2 0.066073658538783427984775187269406160339713096619 
1 2 2 0 -0.015149026470218261361533329534267977578565478325 
1 2 2 1 0.066073658538783427984775187269406160339713096619 
1 2 2 2 -0.022884427342242451980380835152573126833885908127 
1 2 3 3 -0.033475483274665020216875888081631273962557315826 
1 2 4 4 -0.033475483274665020216875888081631273962557315826 
1 2 5 5 -0.073836910463888308364666102079354459419846534729 
1 2 5 6 -0.005233029332853840996653271844252230948768556118 
1 2 5 7 0.019589071574158411354060760345419112127274274826 
1 2 6 5 -0.005233029332853840996653271844252230948768556118 
1 2 6 6 0.001344868493334508592618181666011878405697643757 
1 2 6 7 -0.040669414063304758222283652457917924039065837860 
1 2 7 5 0.019589071574158411354060760345419112127274274826 
1 2 7 6 -0.040669414063304758222283652457917924039065837860 
1 2 7 7 -0.093737410235557497295566520278953248634934425354 
1 2 8 8 -0.054606295843614351126493744459367007948458194733 
1 2 9 9 -0.054606295843614351126493744459367007948458194733 
2 0 0 0 0.069870367581774367460312191724369768053293228149 
2 0 0 1 0.005306535332714797797981631788388767745345830917 
2 0 0 2 0.013534336744889893799914659666683292016386985779 
2 0 1 0 0.005306535332714797797981631788388767745345830917 
2 0 1 1 0.023863005722635496214101280543218308594077825546 
2 0 1 2 -0.015149026470218268300427233441496355226263403893 
2 0 2 0 0.013534336744889893799914659666683292016386985779 
2 0 2 1 -0.015149026470218268300427233441496355226263403893 
2 0 2 2 -0.000985605625854271260449790403868064458947628736 
2 0 3 3 0.005096379397472054241513550465469961636699736118 
2 0 4 4 0.005096379397472054241513550465469961636699736118 
2 0 5 5 0.069950317959323077277034030885261017829179763794 
2 0 5 6 0.013042391857587003548002435593389236601069569588 
2 0 5 7 -0.008848898926724886940253789191501709865406155586 
2 0 6 5 0.013042391857587003548002435593389236601069569588 
2 0 6 6 -0.004073321351743164515923911750405750353820621967 
2 0 6 7 0.013504299978936243689653373678538628155365586281 
2 0 7 5 -0.008848898926724886940253789191501709865406155586 
2 0 7 6 0.013504299978936243689653373678538628155365586281 
2 0 7 7 0.021728434864947847315885809393876115791499614716 
2 0 8 8 0.009093734329502002958212081296096584992483258247 
2 0 9 9 0.009093734329502002958212081296096584992483258247 
2 1 0 0 -0.073749017099224628557507799087034072726964950562 
2 1 0 1 0.006834493607876678325507846523123589577153325081 
2 1 0 2 -0.015149026470218261361533329534267977578565478325 
2 1 1 0 0.006834493607876678325507846523123589577153325081 
2 1 1 1 -0.114178259189952543972701448637963039800524711609 
2 1 1 2 0.066073658538783427984775187269406160339713096619 
2 1 2 0 -0.015149026470218261361533329534267977578565478325 
2 1 2 1 0.066073658538783427984775187269406160339713096619 
2 1 2 2 -0.022884427342242451980380835152573126833885908127 
2 1 3 3 -0.033475483274665020216875888081631273962557315826 
2 1 4 4 -0.033475483274665020216875888081631273962557315826 
2 1 5 5 -0.073836910463888308364666102079354459419846534729 
2 1 5 6 -0.005233029332853840996653271844252230948768556118 
2 1 5 7 0.019589071574158411354060760345419112127274274826 
2 1 6 5 -0.005233029332853840996653271844252230948768556118 
2 1 6 6 0.001344868493334508592618181666011878405697643757 
2 1 6 7 -0.040669414063304758222283652457917924039065837860 
2 1 7 5 0.019589071574158411354060760345419112127274274826 
2 1 7 6 -0.040669414063304758222283652457917924039065837860 
2 1 7 7 -0.093737410235557497295566520278953248634934425354 
2 1 8 8 -0.054606295843614351126493744459367007948458194733 
2 1 9 9 -0.054606295843614351126493744459367007948458194733 
2 2 0 0 0.698202009098557896393799637735355645418167114258 
2 2 0 1 0.007729479000289756103481142446298690629191696644 
2 2 0 2 -0.000985605625854269308885879929960083245532587171 
2 2 1 0 0.007729479000289756103481142446298690629191696644 
2 2 1 1 0.558493675657887211905006097367731854319572448730 
2 2 1 2 -0.022884427342242507491532066410400148015469312668 
2 2 2 0 -0.000985605625854269308885879929960083245532587171 
2 2 2 1 -0.022884427342242507491532066410400148015469312668 
2 2 2 2 0.592132718617566555785458604077575728297233581543 
2 2 3 3 0.546761380193168333718745088845025748014450073242 
2 2 4 4 0.546761380193168333718745088845025748014450073242 
2 2 5 5 0.698142730513330644903646771126659587025642395020 
2 2 5 6 0.005058055647596139577093499184456959483213722706 
2 2 5 7 0.009048583507765599331928996207352611236274242401 
2 2 6 5 0.005058055647596139577093499184456959483213722706 
2 2 6 6 0.556109287832947551954987375211203470826148986816 
2 2 6 7 -0.020326340856037992260718638704020122531801462173 
2 2 7 5 0.009048583507765599331928996207352611236274242401 
2 2 7 6 -0.020326340856037992260718638704020122531801462173 
2 2 7 7 0.611782238396489930210009333677589893341064453125 
2 2 8 8 0.526792830011475476936766426661051809787750244141 
2 2 9 9 0.526792830011475476936766426661051809787750244141 
3 3 0 0 0.729513647523651442838854563888162374496459960938 
3 3 0 1 0.006392519698308188336177693145145894959568977356 
3 3 0 2 0.005096379397472073323471786210348000167869031429 
3 3 1 0 0.006392519698308188336177693145145894959568977356 
3 3 1 1 0.592790942524970221327862418547738343477249145508 
3 3 1 2 -0.033475483274665131239178350597285316325724124908 
3 3 2 0 0.005096379397472073323471786210348000167869031429 
3 3 2 1 -0.033475483274665131239178350597285316325724124908 
3 3 2 2 0.546761380193168333718745088845025748014450073242 
3 3 3 3 0.606146961460225952578184660524129867553710937500 
3 3 4 4 0.555883694433602637552382930152816697955131530762 
3 3 5 5 0.729543456201420803530766079347813501954078674316 
3 3 5 6 0.007903984111727532790858674616174539551138877869 
3 3 5 7 -0.000000399744748221338890362130946698471234412864 
3 3 6 5 0.007903984111727532790858674616174539551138877869 
3 3 6 6 0.539268141393542177475239896011771634221076965332 
3 3 6 7 0.031528095775936591793620067392112105153501033783 
3 3 7 5 -0.000000399744748221338890362130946698471234412864 
3 3 7 6 0.031528095775936591793620067392112105153501033783 
3 3 7 7 0.620606215791438153850378967035794630646705627441 
3 3 8 8 0.542503280023916234497960431326646357774734497070 
3 3 9 9 0.588355950399134464134931477019563317298889160156 
4 4 0 0 0.729513647523651442838854563888162374496459960938 
4 4 0 1 0.006392519698308188336177693145145894959568977356 
4 4 0 2 0.005096379397472073323471786210348000167869031429 
4 4 1 0 0.006392519698308188336177693145145894959568977356 
4 4 1 1 0.592790942524970221327862418547738343477249145508 
4 4 1 2 -0.033475483274665131239178350597285316325724124908 
4 4 2 0 0.005096379397472073323471786210348000167869031429 
4 4 2 1 -0.033475483274665131239178350597285316325724124908 
4 4 2 2 0.546761380193168333718745088845025748014450073242 
4 4 3 3 0.555883694433602637552382930152816697955131530762 
4 4 4 4 0.606146961460225952578184660524129867553710937500 
4 4 5 5 0.729543456201420803530766079347813501954078674316 
4 4 5 6 0.007903984111727532790858674616174539551138877869 
4 4 5 7 -0.000000399744748221338890362130946698471234412864 
4 4 6 5 0.007903984111727532790858674616174539551138877869 
4 4 6 6 0.539268141393542177475239896011771634221076965332 
4 4 6 7 0.031528095775936591793620067392112105153501033783 
4 4 7 5 -0.000000399744748221338890362130946698471234412864 
4 4 7 6 0.031528095775936591793620067392112105153501033783 
4 4 7 7 0.620606215791438153850378967035794630646705627441 
4 4 8 8 0.588355950399134464134931477019563317298889160156 
4 4 9 9 0.542503280023916234497960431326646357774734497070 
5 5 0 0 2.308275130700563781971368371159769594669342041016 
5 5 0 1 0.197526876133625933773529936843260657042264938354 
5 5 0 2 0.069950317959323077277034030885261017829179763794 
5 5 1 0 0.197526876133625933773529936843260657042264938354 
5 5 1 1 0.779422117894948196514803839818341657519340515137 
5 5 1 2 -0.073836910463888238975727063007070682942867279053 
5 5 2 0 0.069950317959323077277034030885261017829179763794 
5 5 2 1 -0.073836910463888238975727063007070682942867279053 
5 5 2 2 0.698142730513330533881344308611005544662475585938 
5 5 3 3 0.729543456201421025575371004379121586680412292480 
5 5 4 4 0.729543456201421025575371004379121586680412292480 
5 5 5 5 2.307714012135518633073161254287697374820709228516 
5 5 5 6 0.197254653075487562663425933351390995085239410400 
5 5 5 7 0.123265920223770281127784187447105068713426589966 
5 5 6 5 0.197254653075487562663425933351390995085239410400 
5 5 6 6 0.672403798265572949510726630251156166195869445801 
5 5 6 7 0.057622600571666481028554329668622813187539577484 
5 5 7 5 0.123265920223770281127784187447105068713426589966 
5 5 7 6 0.057622600571666481028554329668622813187539577484 
5 5 7 7 0.894808477156903703253476578538538888096809387207 
5 5 8 8 0.689659156414937690726674190955236554145812988281 
5 5 9 9 0.689659156414937690726674190955236554145812988281 
5 6 0 0 0.197315094362250809112424576596822589635848999023 
5 6 0 1 0.028088563882880092370530888956636772491037845612 
5 6 0 2 0.013042391857587012221619815477424708660691976547 
5 6 1 0 0.028088563882880092370530888956636772491037845612 
5 6 1 1 0.017030430835190828869896151331886358093470335007 
5 6 1 2 -0.005233029332853815843162870180549361975863575935 
5 6 2 0 0.013042391857587012221619815477424708660691976547 
5 6 2 1 -0.005233029332853815843162870180549361975863575935 
5 6 2 2 0.005058055647596124831943953381596656981855630875 
5 6 3 3 0.007903984111727560546434290245088050141930580139 
5 6 4 4 0.007903984111727560546434290245088050141930580139 
5 6 5 5 0.197254653075487590419001548980304505676031112671 
5 6 5 6 0.030223256536166948071908677775354590266942977905 
5 6 5 7 0.014532789621771981941611429078875517006963491440 
5 6 6 5 0.030223256536166948071908677775354590266942977905 
5 6 6 6 0.006164455128474279933803448017215487197972834110 
5 6 6 7 0.007540243189443765654822460220430002664215862751 
5 6 7 5 0.014532789621771981941611429078875517006963491440 
5 6 7 6 0.007540243189443765654822460220430002664215862751 
5 6 7 7 0.020182638419916916483476398980201338417828083038 
5 6 8 8 0.007644362907350977370812827871304762084037065506 
5 6 9 9 0.007644362907350977370812827871304762084037065506 
5 7 0 0 0.123505200009521698412129353528143838047981262207 
5 7 0 1 0.026481345490979205092862969195266487076878547668 
5 7 0 2 -0.008848898926724880001359885284273332217708230019 
5 7 1 0 0.026481345490979205092862969195266487076878547668 
5 7 1 1 -0.020241014769327544259303053308940434362739324570 
5 7 1 2 0.019589071574158435640189424020718433894217014313 
5 7 2 0 -0.008848898926724880001359885284273332217708230019 
5 7 2 1 0.019589071574158435640189424020718433894217014313 
5 7 2 2 0.009048583507765595862482044253738422412425279617 
5 7 3 3 -0.000000399744748229122064356213898939085282790984 
5 7 4 4 -0.000000399744748229122064356213898939085282790984 
5 7 5 5 0.123265920223770267249996379632648313418030738831 
5 7 5 6 0.014532789621771976737441001148454233771190047264 
5 7 5 7 0.036158138494974359500311322790366830304265022278 
5 7 6 5 0.014532789621771976737441001148454233771190047264 
5 7 6 6 0.014955822124085711016805433359877497423440217972 
5 7 6 7 -0.015178475002996003051514151138690067455172538757 
5 7 7 5 0.036158138494974359500311322790366830304265022278 
5 7 7 6 -0.015178475002996003051514151138690067455172538757 
5 7 7 7 -0.013177141725146238049326541386108146980404853821 
5 7 8 8 -0.006914811942995264214262274293787413625977933407 
5 7 9 9 -0.006914811942995264214262274293787413625977933407 
6 5 0 0 0.197315094362250809112424576596822589635848999023 
6 5 0 1 0.028088563882880092370530888956636772491037845612 
6 5 0 2 0.013042391857587012221619815477424708660691976547 
6 5 1 0 0.028088563882880092370530888956636772491037845612 
6 5 1 1 0.017030430835190828869896151331886358093470335007 
6 5 1 2 -0.005233029332853815843162870180549361975863575935 
6 5 2 0 0.013042391857587012221619815477424708660691976547 
6 5 2 1 -0.005233029332853815843162870180549361975863575935 
6 5 2 2 0.005058055647596124831943953381596656981855630875 
6 5 3 3 0.007903984111727560546434290245088050141930580139 
6 5 4 4 0.007903984111727560546434290245088050141930580139 
6 5 5 5 0.197254653075487590419001548980304505676031112671 
6 5 5 6 0.030223256536166948071908677775354590266942977905 
6 5 5 7 0.014532789621771981941611429078875517006963491440 
6 5 6 5 0.030223256536166948071908677775354590266942977905 
6 5 6 6 0.006164455128474279933803448017215487197972834110 
6 5 6 7 0.007540243189443765654822460220430002664215862751 
6 5 7 5 0.014532789621771981941611429078875517006963491440 
6 5 7 6 0.007540243189443765654822460220430002664215862751 
6 5 7 7 0.020182638419916916483476398980201338417828083038 
6 5 8 8 0.007644362907350977370812827871304762084037065506 
6 5 9 9 0.007644362907350977370812827871304762084037065506 
6 6 0 0 0.672473382943877151518563550780527293682098388672 
6 6 0 1 0.012085437904839766570797010558635520283132791519 
6 6 0 2 -0.004073321351743146301327413993931259028613567352 
6 6 1 0 0.012085437904839766570797010558635520283132791519 
6 6 1 1 0.519089013715816727234653171763056889176368713379 
6 6 1 2 0.001344868493334536998715100786228049400961026549 
6 6 2 0 -0.004073321351743146301327413993931259028613567352 
6 6 2 1 0.001344868493334536998715100786228049400961026549 
6 6 2 2 0.556109287832947551954987375211203470826148986816 
6 6 3 3 0.539268141393542177475239896011771634221076965332 
6 6 4 4 0.539268141393542177475239896011771634221076965332 
6 6 5 5 0.672403798265572838488424167735502123832702636719 
6 6 5 6 0.006164455128474225290013954747792013222351670265 
6 6 5 7 0.014955822124085657240377678078857570653781294823 
6 6 6 5 0.006164455128474225290013954747792013222351670265 
6 6 6 6 0.543646050752576881492927896033506840467453002930 
6 6 6 7 -0.015404300893793347604354693203276838175952434540 
6 6 7 5 0.014955822124085657240377678078857570653781294823 
6 6 7 6 -0.015404300893793347604354693203276838175952434540 
6 6 7 7 0.565808902935277413526193868165137246251106262207 
6 6 8 8 0.514183127622487634589276694896398112177848815918 
6 6 9 9 0.514183127622487634589276694896398112177848815918 
6 7 0 0 0.057526431350524868946205714337338577024638652802 
6 7 0 1 -0.002067151518865754759868291756674807402305305004 
6 7 0 2 0.013504299978936262771611609423416666686534881592 
6 7 1 0 -0.002067151518865754759868291756674807402305305004 
6 7 1 1 0.075469637514340631723186447743501048535108566284 
6 7 1 2 -0.040669414063304730466708036829004413448274135590 
6 7 2 0 0.013504299978936262771611609423416666686534881592 
6 7 2 1 -0.040669414063304730466708036829004413448274135590 
6 7 2 2 -0.020326340856038033894082062147390388417989015579 
6 7 3 3 0.031528095775936564038044451763198594562709331512 
6 7 4 4 0.031528095775936564038044451763198594562709331512 
6 7 5 5 0.057622600571666418578509194503567414358258247375 
6 7 5 6 0.007540243189443752644396390394376794574782252312 
6 7 5 7 -0.015178475002996029072366290790796483634039759636 
6 7 6 5 0.007540243189443752644396390394376794574782252312 
6 7 6 6 -0.015404300893793349339078169180083932587876915932 
6 7 6 7 0.052793322536158239499659572402379126287996768951 
6 7 7 5 -0.015178475002996029072366290790796483634039759636 
6 7 7 6 0.052793322536158239499659572402379126287996768951 
6 7 7 7 0.048613696149729122841787187780937529169023036957 
6 7 8 8 0.045806315372918564310378286563718575052917003632 
6 7 9 9 0.045806315372918564310378286563718575052917003632 
7 5 0 0 0.123505200009521698412129353528143838047981262207 
7 5 0 1 0.026481345490979205092862969195266487076878547668 
7 5 0 2 -0.008848898926724880001359885284273332217708230019 
7 5 1 0 0.026481345490979205092862969195266487076878547668 
7 5 1 1 -0.020241014769327544259303053308940434362739324570 
7 5 1 2 0.019589071574158435640189424020718433894217014313 
7 5 2 0 -0.008848898926724880001359885284273332217708230019 
7 5 2 1 0.019589071574158435640189424020718433894217014313 
7 5 2 2 0.009048583507765595862482044253738422412425279617 
7 5 3 3 -0.000000399744748229122064356213898939085282790984 
7 5 4 4 -0.000000399744748229122064356213898939085282790984 
7 5 5 5 0.123265920223770267249996379632648313418030738831 
7 5 5 6 0.014532789621771976737441001148454233771190047264 
7 5 5 7 0.036158138494974359500311322790366830304265022278 
7 5 6 5 0.014532789621771976737441001148454233771190047264 
7 5 6 6 0.014955822124085711016805433359877497423440217972 
7 5 6 7 -0.015178475002996003051514151138690067455172538757 
7 5 7 5 0.036158138494974359500311322790366830304265022278 
7 5 7 6 -0.015178475002996003051514151138690067455172538757 
7 5 7 7 -0.013177141725146238049326541386108146980404853821 
7 5 8 8 -0.006914811942995264214262274293787413625977933407 
7 5 9 9 -0.006914811942995264214262274293787413625977933407 
7 6 0 0 0.057526431350524868946205714337338577024638652802 
7 6 0 1 -0.002067151518865754759868291756674807402305305004 
7 6 0 2 0.013504299978936262771611609423416666686534881592 
7 6 1 0 -0.002067151518865754759868291756674807402305305004 
7 6 1 1 0.075469637514340631723186447743501048535108566284 
7 6 1 2 -0.040669414063304730466708036829004413448274135590 
7 6 2 0 0.013504299978936262771611609423416666686534881592 
7 6 2 1 -0.040669414063304730466708036829004413448274135590 
7 6 2 2 -0.020326340856038033894082062147390388417989015579 
7 6 3 3 0.031528095775936564038044451763198594562709331512 
7 6 4 4 0.031528095775936564038044451763198594562709331512 
7 6 5 5 0.057622600571666418578509194503567414358258247375 
7 6 5 6 0.007540243189443752644396390394376794574782252312 
7 6 5 7 -0.015178475002996029072366290790796483634039759636 
7 6 6 5 0.007540243189443752644396390394376794574782252312 
7 6 6 6 -0.015404300893793349339078169180083932587876915932 
7 6 6 7 0.052793322536158239499659572402379126287996768951 
7 6 7 5 -0.015178475002996029072366290790796483634039759636 
7 6 7 6 0.052793322536158239499659572402379126287996768951 
7 6 7 7 0.048613696149729122841787187780937529169023036957 
7 6 8 8 0.045806315372918564310378286563718575052917003632 
7 6 9 9 0.045806315372918564310378286563718575052917003632 
7 7 0 0 0.894724784045933696496888387628132477402687072754 
7 7 0 1 0.007596395968480095309272037695791368605569005013 
7 7 0 2 0.021728434864947843846438857440261926967650651932 
7 7 1 0 0.007596395968480095309272037695791368605569005013 
7 7 1 1 0.705992162095531949894677836709888651967048645020 
7 7 1 2 -0.093737410235557580562293367165693780407309532166 
7 7 2 0 0.021728434864947843846438857440261926967650651932 
7 7 2 1 -0.093737410235557580562293367165693780407309532166 
7 7 2 2 0.611782238396489819187706871161935850977897644043 
7 7 3 3 0.620606215791438264872681429551448673009872436523 
7 7 4 4 0.620606215791438264872681429551448673009872436523 
7 7 5 5 0.894808477156903814275779041054192930459976196289 
7 7 5 6 0.020182638419916913014029447026587149593979120255 
7 7 5 7 -0.013177141725146250192390873223757807863876223564 
7 7 6 5 0.020182638419916913014029447026587149593979120255 
7 7 6 6 0.565808902935277302503891405649483203887939453125 
7 7 6 7 0.048613696149729199169620130760449683293700218201 
7 7 7 5 -0.013177141725146250192390873223757807863876223564 
7 7 7 6 0.048613696149729199169620130760449683293700218201 
7 7 7 7 0.754110024468419792853524086240213364362716674805 
7 7 8 8 0.618162314005833324337402245873818174004554748535 
7 7 9 9 0.618162314005833324337402245873818174004554748535 
8 8 0 0 0.689607638237971887207322652102448046207427978516 
8 8 0 1 0.002201110386418732994817659687214472796767950058 
8 8 0 2 0.009093734329502009897105985203324962640181183815 
8 8 1 0 0.002201110386418732994817659687214472796767950058 
8 8 1 1 0.611309098178606569184978525299811735749244689941 
8 8 1 2 -0.054606295843614274798660801479854853823781013489 
8 8 2 0 0.009093734329502009897105985203324962640181183815 
8 8 2 1 -0.054606295843614274798660801479854853823781013489 
8 8 2 2 0.526792830011475365914463964145397767424583435059 
8 8 3 3 0.542503280023916234497960431326646357774734497070 
8 8 4 4 0.588355950399134464134931477019563317298889160156 
8 8 5 5 0.689659156414937690726674190955236554145812988281 
8 8 5 6 0.007644362907351019871537989303078575176186859608 
8 8 5 7 -0.006914811942995206101025829070749750826507806778 
8 8 6 5 0.007644362907351019871537989303078575176186859608 
8 8 6 6 0.514183127622487634589276694896398112177848815918 
8 8 6 7 0.045806315372918494921439247491434798575937747955 
8 8 7 5 -0.006914811942995206101025829070749750826507806778 
8 8 7 6 0.045806315372918494921439247491434798575937747955 
8 8 7 7 0.618162314005833102292797320842510089278221130371 
8 8 8 8 0.589660791448465282371671492001041769981384277344 
8 8 9 9 0.541426861690216698619337876152712851762771606445 
9 9 0 0 0.689607638237971887207322652102448046207427978516 
9 9 0 1 0.002201110386418732994817659687214472796767950058 
9 9 0 2 0.009093734329502009897105985203324962640181183815 
9 9 1 0 0.002201110386418732994817659687214472796767950058 
9 9 1 1 0.611309098178606569184978525299811735749244689941 
9 9 1 2 -0.054606295843614274798660801479854853823781013489 
9 9 2 0 0.009093734329502009897105985203324962640181183815 
9 9 2 1 -0.054606295843614274798660801479854853823781013489 
9 9 2 2 0.526792830011475365914463964145397767424583435059 
9 9 3 3 0.588355950399134464134931477019563317298889160156 
9 9 4 4 0.542503280023916234497960431326646357774734497070 
9 9 5 5 0.689659156414937690726674190955236554145812988281 
9 9 5 6 0.007644362907351019871537989303078575176186859608 
9 9 5 7 -0.006914811942995206101025829070749750826507806778 
9 9 6 5 0.007644362907351019871537989303078575176186859608 
9 9 6 6 0.514183127622487634589276694896398112177848815918 
9 9 6 7 0.045806315372918494921439247491434798575937747955 
9 9 7 5 -0.006914811942995206101025829070749750826507806778 
9 9 7 6 0.045806315372918494921439247491434798575937747955 
9 9 7 7 0.618162314005833102292797320842510089278221130371 
9 9 8 8 0.541426861690216698619337876152712851762771606445 
9 9 9 9 0.589660791448465282371671492001041769981384277344 
3 4 3 4 0.025131633513311584654514874159758619498461484909 
3 4 4 3 0.025131633513311584654514874159758619498461484909 
3 4 8 9 0.022926335187609177268530658011513878591358661652 
3 4 9 8 0.022926335187609177268530658011513878591358661652 
4 3 3 4 0.025131633513311584654514874159758619498461484909 
4 3 4 3 0.025131633513311584654514874159758619498461484909 
4 3 8 9 0.022926335187609177268530658011513878591358661652 
4 3 9 8 0.022926335187609177268530658011513878591358661652 
8 9 3 4 0.022926335187609180737977609965128067415207624435 
8 9 4 3 0.022926335187609180737977609965128067415207624435 
8 9 8 9 0.024116964879124420245704030207889445591717958450 
8 9 9 8 0.024116964879124420245704030207889445591717958450 
9 8 3 4 0.022926335187609180737977609965128067415207624435 
9 8 4 3 0.022926335187609180737977609965128067415207624435 
9 8 8 9 0.024116964879124420245704030207889445591717958450 
9 8 9 8 0.024116964879124420245704030207889445591717958450 
0 3 0 3 0.013883569406818233732403555791279359254986047745 
0 3 1 3 -0.014105199045427292692256315831400570459663867950 
0 3 2 3 -0.007575166302688475343518614835147673147730529308 
0 3 3 0 0.013883569406818233732403555791279359254986047745 
0 3 3 1 -0.014105199045427292692256315831400570459663867950 
0 3 3 2 -0.007575166302688475343518614835147673147730529308 
0 3 5 9 0.011331174826077365647147843219499918632209300995 
0 3 6 9 -0.013847362376937840527935108525525720324367284775 
0 3 7 9 -0.009418043960767723266069850751591729931533336639 
0 3 9 5 0.011331174826077365647147843219499918632209300995 
0 3 9 6 -0.013847362376937840527935108525525720324367284775 
0 3 9 7 -0.009418043960767723266069850751591729931533336639 
1 3 0 3 -0.014105199045427296161703267785014759283512830734 
1 3 1 3 0.047963387098839946331985117922158678993582725525 
1 3 2 3 0.024257712529096898956826322546476149000227451324 
1 3 3 0 -0.014105199045427296161703267785014759283512830734 
1 3 3 1 0.047963387098839946331985117922158678993582725525 
1 3 3 2 0.024257712529096898956826322546476149000227451324 
1 3 5 9 -0.011955021592788949574837076283984060864895582199 
1 3 6 9 0.046941898546438078076992184151094988919794559479 
1 3 7 9 0.032543735659390352066289153754041763022541999817 
1 3 9 5 -0.011955021592788949574837076283984060864895582199 
1 3 9 6 0.046941898546438078076992184151094988919794559479 
1 3 9 7 0.032543735659390352066289153754041763022541999817 
2 3 0 3 -0.007575166302688476210880352823551220353692770004 
2 3 1 3 0.024257712529096902426273274500090337824076414108 
2 3 2 3 0.034427813550386501817435203065542737022042274475 
2 3 3 0 -0.007575166302688476210880352823551220353692770004 
2 3 3 1 0.024257712529096902426273274500090337824076414108 
2 3 3 2 0.034427813550386501817435203065542737022042274475 
2 3 5 9 -0.006117291040364061446843457758859585737809538841 
2 3 6 9 0.035715484002144998187944224810053128749132156372 
2 3 7 9 0.000530621700118789224077942012769426582963205874 
2 3 9 5 -0.006117291040364061446843457758859585737809538841 
2 3 9 6 0.035715484002144998187944224810053128749132156372 
2 3 9 7 0.000530621700118789224077942012769426582963205874 
3 0 0 3 0.013883569406818233732403555791279359254986047745 
3 0 1 3 -0.014105199045427292692256315831400570459663867950 
3 0 2 3 -0.007575166302688475343518614835147673147730529308 
3 0 3 0 0.013883569406818233732403555791279359254986047745 
3 0 3 1 -0.014105199045427292692256315831400570459663867950 
3 0 3 2 -0.007575166302688475343518614835147673147730529308 
3 0 5 9 0.011331174826077365647147843219499918632209300995 
3 0 6 9 -0.013847362376937840527935108525525720324367284775 
3 0 7 9 -0.009418043960767723266069850751591729931533336639 
3 0 9 5 0.011331174826077365647147843219499918632209300995 
3 0 9 6 -0.013847362376937840527935108525525720324367284775 
3 0 9 7 -0.009418043960767723266069850751591729931533336639 
3 1 0 3 -0.014105199045427296161703267785014759283512830734 
3 1 1 3 0.047963387098839946331985117922158678993582725525 
3 1 2 3 0.024257712529096898956826322546476149000227451324 
3 1 3 0 -0.014105199045427296161703267785014759283512830734 
3 1 3 1 0.047963387098839946331985117922158678993582725525 
3 1 3 2 0.024257712529096898956826322546476149000227451324 
3 1 5 9 -0.011955021592788949574837076283984060864895582199 
3 1 6 9 0.046941898546438078076992184151094988919794559479 
3 1 7 9 0.032543735659390352066289153754041763022541999817 
3 1 9 5 -0.011955021592788949574837076283984060864895582199 
3 1 9 6 0.046941898546438078076992184151094988919794559479 
3 1 9 7 0.032543735659390352066289153754041763022541999817 
3 2 0 3 -0.007575166302688476210880352823551220353692770004 
3 2 1 3 0.024257712529096902426273274500090337824076414108 
3 2 2 3 0.034427813550386501817435203065542737022042274475 
3 2 3 0 -0.007575166302688476210880352823551220353692770004 
3 2 3 1 0.024257712529096902426273274500090337824076414108 
3 2 3 2 0.034427813550386501817435203065542737022042274475 
3 2 5 9 -0.006117291040364061446843457758859585737809538841 
3 2 6 9 0.035715484002144998187944224810053128749132156372 
3 2 7 9 0.000530621700118789224077942012769426582963205874 
3 2 9 5 -0.006117291040364061446843457758859585737809538841 
3 2 9 6 0.035715484002144998187944224810053128749132156372 
3 2 9 7 0.000530621700118789224077942012769426582963205874 
5 9 0 3 0.011331174826077365647147843219499918632209300995 
5 9 1 3 -0.011955021592788946105390124330369872041046619415 
5 9 2 3 -0.006117291040364059712119981782052491325885057449 
5 9 3 0 0.011331174826077365647147843219499918632209300995 
5 9 3 1 -0.011955021592788946105390124330369872041046619415 
5 9 3 2 -0.006117291040364059712119981782052491325885057449 
5 9 5 9 0.009261004306620556833506974214742513140663504601 
5 9 6 9 -0.011577759963126068448735495053369959350675344467 
5 9 7 9 -0.008197020762745199640164628362981602549552917480 
5 9 9 5 0.009261004306620556833506974214742513140663504601 
5 9 9 6 -0.011577759963126068448735495053369959350675344467 
5 9 9 7 -0.008197020762745199640164628362981602549552917480 
6 9 0 3 -0.013847362376937838793211632548718625912442803383 
6 9 1 3 0.046941898546438078076992184151094988919794559479 
6 9 2 3 0.035715484002144998187944224810053128749132156372 
6 9 3 0 -0.013847362376937838793211632548718625912442803383 
6 9 3 1 0.046941898546438078076992184151094988919794559479 
6 9 3 2 0.035715484002144998187944224810053128749132156372 
6 9 5 9 -0.011577759963126070183458971030177053762599825859 
6 9 6 9 0.052434846586438238480454288037435617297887802124 
6 9 7 9 0.023242569092081510201408534044276166241616010666 
6 9 9 5 -0.011577759963126070183458971030177053762599825859 
6 9 9 6 0.052434846586438238480454288037435617297887802124 
6 9 9 7 0.023242569092081510201408534044276166241616010666 
7 9 0 3 -0.009418043960767721531346374774784635519608855247 
7 9 1 3 0.032543735659390345127395249846813385374844074249 
7 9 2 3 0.000530621700118798873477277133758889249293133616 
7 9 3 0 -0.009418043960767721531346374774784635519608855247 
7 9 3 1 0.032543735659390345127395249846813385374844074249 
7 9 3 2 0.000530621700118798873477277133758889249293133616 
7 9 5 9 -0.008197020762745197905441152386174508137628436089 
7 9 6 9 0.023242569092081506731961582090661977417767047882 
7 9 7 9 0.033607874278958380087622970222582807764410972595 
7 9 9 5 -0.008197020762745197905441152386174508137628436089 
7 9 9 6 0.023242569092081506731961582090661977417767047882 
7 9 9 7 0.033607874278958380087622970222582807764410972595 
9 5 0 3 0.011331174826077365647147843219499918632209300995 
9 5 1 3 -0.011955021592788946105390124330369872041046619415 
9 5 2 3 -0.006117291040364059712119981782052491325885057449 
9 5 3 0 0.011331174826077365647147843219499918632209300995 
9 5 3 1 -0.011955021592788946105390124330369872041046619415 
9 5 3 2 -0.006117291040364059712119981782052491325885057449 
9 5 5 9 0.009261004306620556833506974214742513140663504601 
9 5 6 9 -0.011577759963126068448735495053369959350675344467 
9 5 7 9 -0.008197020762745199640164628362981602549552917480 
9 5 9 5 0.009261004306620556833506974214742513140663504601 
9 5 9 6 -0.011577759963126068448735495053369959350675344467 
9 5 9 7 -0.008197020762745199640164628362981602549552917480 
9 6 0 3 -0.013847362376937838793211632548718625912442803383 
9 6 1 3 0.046941898546438078076992184151094988919794559479 
9 6 2 3 0.035715484002144998187944224810053128749132156372 
9 6 3 0 -0.013847362376937838793211632548718625912442803383 
9 6 3 1 0.046941898546438078076992184151094988919794559479 
9 6 3 2 0.035715484002144998187944224810053128749132156372 
9 6 5 9 -0.011577759963126070183458971030177053762599825859 
9 6 6 9 0.052434846586438238480454288037435617297887802124 
9 6 7 9 0.023242569092081510201408534044276166241616010666 
9 6 9 5 -0.011577759963126070183458971030177053762599825859 
9 6 9 6 0.052434846586438238480454288037435617297887802124 
9 6 9 7 0.023242569092081510201408534044276166241616010666 
9 7 0 3 -0.009418043960767721531346374774784635519608855247 
9 7 1 3 0.032543735659390345127395249846813385374844074249 
9 7 2 3 0.000530621700118798873477277133758889249293133616 
9 7 3 0 -0.009418043960767721531346374774784635519608855247 
9 7 3 1 0.032543735659390345127395249846813385374844074249 
9 7 3 2 0.000530621700118798873477277133758889249293133616 
9 7 5 9 -0.008197020762745197905441152386174508137628436089 
9 7 6 9 0.023242569092081506731961582090661977417767047882 
9 7 7 9 0.033607874278958380087622970222582807764410972595 
9 7 9 5 -0.008197020762745197905441152386174508137628436089 
9 7 9 6 0.023242569092081506731961582090661977417767047882 
9 7 9 7 0.033607874278958380087622970222582807764410972595 
0 4 0 4 0.013883569406818233732403555791279359254986047745 
0 4 1 4 -0.014105199045427292692256315831400570459663867950 
0 4 2 4 -0.007575166302688475343518614835147673147730529308 
0 4 4 0 0.013883569406818233732403555791279359254986047745 
0 4 4 1 -0.014105199045427292692256315831400570459663867950 
0 4 4 2 -0.007575166302688475343518614835147673147730529308 
0 4 5 8 0.011331174826077365647147843219499918632209300995 
0 4 6 8 -0.013847362376937840527935108525525720324367284775 
0 4 7 8 -0.009418043960767723266069850751591729931533336639 
0 4 8 5 0.011331174826077365647147843219499918632209300995 
0 4 8 6 -0.013847362376937840527935108525525720324367284775 
0 4 8 7 -0.009418043960767723266069850751591729931533336639 
1 4 0 4 -0.014105199045427296161703267785014759283512830734 
1 4 1 4 0.047963387098839946331985117922158678993582725525 
1 4 2 4 0.024257712529096898956826322546476149000227451324 
1 4 4 0 -0.014105199045427296161703267785014759283512830734 
1 4 4 1 0.047963387098839946331985117922158678993582725525 
1 4 4 2 0.024257712529096898956826322546476149000227451324 
1 4 5 8 -0.011955021592788949574837076283984060864895582199 
1 4 6 8 0.046941898546438078076992184151094988919794559479 
1 4 7 8 0.032543735659390352066289153754041763022541999817 
1 4 8 5 -0.011955021592788949574837076283984060864895582199 
1 4 8 6 0.046941898546438078076992184151094988919794559479 
1 4 8 7 0.032543735659390352066289153754041763022541999817 
2 4 0 4 -0.007575166302688476210880352823551220353692770004 
2 4 1 4 0.024257712529096902426273274500090337824076414108 
2 4 2 4 0.034427813550386501817435203065542737022042274475 
2 4 4 0 -0.007575166302688476210880352823551220353692770004 
2 4 4 1 0.024257712529096902426273274500090337824076414108 
2 4 4 2 0.034427813550386501817435203065542737022042274475 
2 4 5 8 -0.006117291040364061446843457758859585737809538841 
2 4 6 8 0.035715484002144998187944224810053128749132156372 
2 4 7 8 0.000530621700118789224077942012769426582963205874 
2 4 8 5 -0.006117291040364061446843457758859585737809538841 
2 4 8 6 0.035715484002144998187944224810053128749132156372 
2 4 8 7 0.000530621700118789224077942012769426582963205874 
4 0 0 4 0.013883569406818233732403555791279359254986047745 
4 0 1 4 -0.014105199045427292692256315831400570459663867950 
4 0 2 4 -0.007575166302688475343518614835147673147730529308 
4 0 4 0 0.013883569406818233732403555791279359254986047745 
4 0 4 1 -0.014105199045427292692256315831400570459663867950 
4 0 4 2 -0.007575166302688475343518614835147673147730529308 
4 0 5 8 0.011331174826077365647147843219499918632209300995 
4 0 6 8 -0.013847362376937840527935108525525720324367284775 
4 0 7 8 -0.009418043960767723266069850751591729931533336639 
4 0 8 5 0.011331174826077365647147843219499918632209300995 
4 0 8 6 -0.013847362376937840527935108525525720324367284775 
4 0 8 7 -0.009418043960767723266069850751591729931533336639 
4 1 0 4 -0.014105199045427296161703267785014759283512830734 
4 1 1 4 0.047963387098839946331985117922158678993582725525 
4 1 2 4 0.024257712529096898956826322546476149000227451324 
4 1 4 0 -0.014105199045427296161703267785014759283512830734 
4 1 4 1 0.047963387098839946331985117922158678993582725525 
4 1 4 2 0.024257712529096898956826322546476149000227451324 
4 1 5 8 -0.011955021592788949574837076283984060864895582199 
4 1 6 8 0.046941898546438078076992184151094988919794559479 
4 1 7 8 0.032543735659390352066289153754041763022541999817 
4 1 8 5 -0.011955021592788949574837076283984060864895582199 
4 1 8 6 0.046941898546438078076992184151094988919794559479 
4 1 8 7 0.032543735659390352066289153754041763022541999817 
4 2 0 4 -0.007575166302688476210880352823551220353692770004 
4 2 1 4 0.024257712529096902426273274500090337824076414108 
4 2 2 4 0.034427813550386501817435203065542737022042274475 
4 2 4 0 -0.007575166302688476210880352823551220353692770004 
4 2 4 1 0.024257712529096902426273274500090337824076414108 
4 2 4 2 0.034427813550386501817435203065542737022042274475 
4 2 5 8 -0.006117291040364061446843457758859585737809538841 
4 2 6 8 0.035715484002144998187944224810053128749132156372 
4 2 7 8 0.000530621700118789224077942012769426582963205874 
4 2 8 5 -0.006117291040364061446843457758859585737809538841 
4 2 8 6 0.035715484002144998187944224810053128749132156372 
4 2 8 7 0.000530621700118789224077942012769426582963205874 
5 8 0 4 0.011331174826077365647147843219499918632209300995 
5 8 1 4 -0.011955021592788946105390124330369872041046619415 
5 8 2 4 -0.006117291040364059712119981782052491325885057449 
5 8 4 0 0.011331174826077365647147843219499918632209300995 
5 8 4 1 -0.011955021592788946105390124330369872041046619415 
5 8 4 2 -0.006117291040364059712119981782052491325885057449 
5 8 5 8 0.009261004306620556833506974214742513140663504601 
5 8 6 8 -0.011577759963126068448735495053369959350675344467 
5 8 7 8 -0.008197020762745199640164628362981602549552917480 
5 8 8 5 0.009261004306620556833506974214742513140663504601 
5 8 8 6 -0.011577759963126068448735495053369959350675344467 
5 8 8 7 -0.008197020762745199640164628362981602549552917480 
6 8 0 4 -0.013847362376937838793211632548718625912442803383 
6 8 1 4 0.046941898546438078076992184151094988919794559479 
6 8 2 4 0.035715484002144998187944224810053128749132156372 
6 8 4 0 -0.013847362376937838793211632548718625912442803383 
6 8 4 1 0.046941898546438078076992184151094988919794559479 
6 8 4 2 0.035715484002144998187944224810053128749132156372 
6 8 5 8 -0.011577759963126070183458971030177053762599825859 
6 8 6 8 0.052434846586438238480454288037435617297887802124 
6 8 7 8 0.023242569092081510201408534044276166241616010666 
6 8 8 5 -0.011577759963126070183458971030177053762599825859 
6 8 8 6 0.052434846586438238480454288037435617297887802124 
6 8 8 7 0.023242569092081510201408534044276166241616010666 
7 8 0 4 -0.009418043960767721531346374774784635519608855247 
7 8 1 4 0.032543735659390345127395249846813385374844074249 
7 8 2 4 0.000530621700118798873477277133758889249293133616 
7 8 4 0 -0.009418043960767721531346374774784635519608855247 
7 8 4 1 0.032543735659390345127395249846813385374844074249 
7 8 4 2 0.000530621700118798873477277133758889249293133616 
7 8 5 8 -0.008197020762745197905441152386174508137628436089 
7 8 6 8 0.023242569092081506731961582090661977417767047882 
7 8 7 8 0.033607874278958380087622970222582807764410972595 
7 8 8 5 -0.008197020762745197905441152386174508137628436089 
7 8 8 6 0.023242569092081506731961582090661977417767047882 
7 8 8 7 0.033607874278958380087622970222582807764410972595 
8 5 0 4 0.011331174826077365647147843219499918632209300995 
8 5 1 4 -0.011955021592788946105390124330369872041046619415 
8 5 2 4 -0.006117291040364059712119981782052491325885057449 
8 5 4 0 0.011331174826077365647147843219499918632209300995 
8 5 4 1 -0.011955021592788946105390124330369872041046619415 
8 5 4 2 -0.006117291040364059712119981782052491325885057449 
8 5 5 8 0.009261004306620556833506974214742513140663504601 
8 5 6 8 -0.011577759963126068448735495053369959350675344467 
8 5 7 8 -0.008197020762745199640164628362981602549552917480 
8 5 8 5 0.009261004306620556833506974214742513140663504601 
8 5 8 6 -0.011577759963126068448735495053369959350675344467 
8 5 8 7 -0.008197020762745199640164628362981602549552917480 
8 6 0 4 -0.013847362376937838793211632548718625912442803383 
8 6 1 4 0.046941898546438078076992184151094988919794559479 
8 6 2 4 0.035715484002144998187944224810053128749132156372 
8 6 4 0 -0.013847362376937838793211632548718625912442803383 
8 6 4 1 0.046941898546438078076992184151094988919794559479 
8 6 4 2 0.035715484002144998187944224810053128749132156372 
8 6 5 8 -0.011577759963126070183458971030177053762599825859 
8 6 6 8 0.052434846586438238480454288037435617297887802124 
8 6 7 8 0.023242569092081510201408534044276166241616010666 
8 6 8 5 -0.011577759963126070183458971030177053762599825859 
8 6 8 6 0.052434846586438238480454288037435617297887802124 
8 6 8 7 0.023242569092081510201408534044276166241616010666 
8 7 0 4 -0.009418043960767721531346374774784635519608855247 
8 7 1 4 0.032543735659390345127395249846813385374844074249 
8 7 2 4 0.000530621700118798873477277133758889249293133616 
8 7 4 0 -0.009418043960767721531346374774784635519608855247 
8 7 4 1 0.032543735659390345127395249846813385374844074249 
8 7 4 2 0.000530621700118798873477277133758889249293133616 
8 7 5 8 -0.008197020762745197905441152386174508137628436089 
8 7 6 8 0.023242569092081506731961582090661977417767047882 
8 7 7 8 0.033607874278958380087622970222582807764410972595 
8 7 8 5 -0.008197020762745197905441152386174508137628436089 
8 7 8 6 0.023242569092081506731961582090661977417767047882 
8 7 8 7 0.033607874278958380087622970222582807764410972595 
3 8 3 8 0.018953600226768226727491750693843641784042119980 
3 8 4 9 0.018953600226768226727491750693843641784042119980 
3 8 8 3 0.018953600226768226727491750693843641784042119980 
3 8 9 4 0.018953600226768226727491750693843641784042119980 
4 9 3 8 0.018953600226768226727491750693843641784042119980 
4 9 4 9 0.018953600226768226727491750693843641784042119980 
4 9 8 3 0.018953600226768226727491750693843641784042119980 
4 9 9 4 0.018953600226768226727491750693843641784042119980 
8 3 3 8 0.018953600226768226727491750693843641784042119980 
8 3 4 9 0.018953600226768226727491750693843641784042119980 
8 3 8 3 0.018953600226768226727491750693843641784042119980 
8 3 9 4 0.018953600226768226727491750693843641784042119980 
9 4 3 8 0.018953600226768226727491750693843641784042119980 
9 4 4 9 0.018953600226768226727491750693843641784042119980 
9 4 8 3 0.018953600226768226727491750693843641784042119980 
9 4 9 4 0.018953600226768226727491750693843641784042119980 
0 5 0 5 1.822545764771054344066669727908447384834289550781 
0 5 0 6 0.190817817940288875222520914576307404786348342896 
0 5 0 7 0.142613271860299178905862049759889487177133560181 
0 5 1 5 0.203335618860435690669064001667720731347799301147 
0 5 1 6 0.198173157085587164916162805639032740145921707153 
0 5 1 7 0.203051342166836762404003025039855856448411941528 
0 5 2 5 0.054101196417298290375352820547050214372575283051 
0 5 2 6 0.229606361459943647540526967532059643417596817017 
0 5 2 7 -0.218872215029426830934511372106499038636684417725 
0 5 3 9 0.274139722741443492282087390776723623275756835938 
0 5 4 8 0.274139722741443492282087390776723623275756835938 
0 5 5 0 1.822545764771054344066669727908447384834289550781 
0 5 5 1 0.203335618860435690669064001667720731347799301147 
0 5 5 2 0.054101196417298290375352820547050214372575283051 
0 5 6 0 0.190817817940288875222520914576307404786348342896 
0 5 6 1 0.198173157085587164916162805639032740145921707153 
0 5 6 2 0.229606361459943647540526967532059643417596817017 
0 5 7 0 0.142613271860299178905862049759889487177133560181 
0 5 7 1 0.203051342166836762404003025039855856448411941528 
0 5 7 2 -0.218872215029426830934511372106499038636684417725 
0 5 8 4 0.274139722741443492282087390776723623275756835938 
0 5 9 3 0.274139722741443492282087390776723623275756835938 
0 6 0 5 0.190817817940288902978096530205220915377140045166 
0 6 0 6 0.030060257229890811198069755505457578692585229874 
0 6 0 7 0.015043503041565474756535714107030798913910984993 
0 6 1 5 0.028232362654724594414057392555150727275758981705 
0 6 1 6 0.005431909734446167467569743791955261258408427238 
0 6 1 7 0.010912067386523506898332591674716240959241986275 
0 6 2 5 0.012626476212720305972170287134304089704528450966 
0 6 2 6 -0.001926729308915086725031984293821096798637881875 
0 6 2 7 -0.002865279656670885292946149291992696817032992840 
0 6 3 9 0.003092218317271559595293961564266282948665320873 
0 6 4 8 0.003092218317271559595293961564266282948665320873 
0 6 5 0 0.190817817940288902978096530205220915377140045166 
0 6 5 1 0.028232362654724594414057392555150727275758981705 
0 6 5 2 0.012626476212720305972170287134304089704528450966 
0 6 6 0 0.030060257229890811198069755505457578692585229874 
0 6 6 1 0.005431909734446167467569743791955261258408427238 
0 6 6 2 -0.001926729308915086725031984293821096798637881875 
0 6 7 0 0.015043503041565474756535714107030798913910984993 
0 6 7 1 0.010912067386523506898332591674716240959241986275 
0 6 7 2 -0.002865279656670885292946149291992696817032992840 
0 6 8 4 0.003092218317271559595293961564266282948665320873 
0 6 9 3 0.003092218317271559595293961564266282948665320873 
0 7 0 5 0.142613271860299123394710818502062465995550155640 
0 7 0 6 0.015043503041565469552365286176609515678137540817 
0 7 0 7 0.034980435329181977510693002386688021942973136902 
0 7 1 5 0.026095964521647745104626636702960240654647350311 
0 7 1 6 0.009814567396264546952910912125389586435630917549 
0 7 1 7 -0.007352413263081741638671484651013088296167552471 
0 7 2 5 -0.007662876149114692704567008973981501185335218906 
0 7 2 6 0.025464902569257485964726583915762603282928466797 
0 7 2 7 -0.010108296395603443354471728810040076496079564095 
0 7 3 9 0.009948147977342818720769557216954126488417387009 
0 7 4 8 0.009948147977342818720769557216954126488417387009 
0 7 5 0 0.142613271860299123394710818502062465995550155640 
0 7 5 1 0.026095964521647745104626636702960240654647350311 
0 7 5 2 -0.007662876149114692704567008973981501185335218906 
0 7 6 0 0.015043503041565469552365286176609515678137540817 
0 7 6 1 0.009814567396264546952910912125389586435630917549 
0 7 6 2 0.025464902569257485964726583915762603282928466797 
0 7 7 0 0.034980435329181977510693002386688021942973136902 
0 7 7 1 -0.007352413263081741638671484651013088296167552471 
0 7 7 2 -0.010108296395603443354471728810040076496079564095 
0 7 8 4 0.009948147977342818720769557216954126488417387009 
0 7 9 3 0.009948147977342818720769557216954126488417387009 
1 5 0 5 0.203335618860435718424639617296634241938591003418 
1 5 0 6 0.028232362654724594414057392555150727275758981705 
1 5 0 7 0.026095964521647752043520540610188618302345275879 
1 5 1 5 0.031802536131646096106972976258475682698190212250 
1 5 1 6 0.009373887963675704357302542746310791699215769768 
1 5 1 7 0.004976361735320204357502227310305897844955325127 
1 5 2 5 0.005710157683960226555897055078503399272449314594 
1 5 2 6 0.011721869151661146526977042015005281427875161171 
1 5 2 7 -0.007431302015753429683619923906690019066445529461 
1 5 3 9 0.008479233120721371350092532281905732816085219383 
1 5 4 8 0.008479233120721371350092532281905732816085219383 
1 5 5 0 0.203335618860435718424639617296634241938591003418 
1 5 5 1 0.031802536131646096106972976258475682698190212250 
1 5 5 2 0.005710157683960226555897055078503399272449314594 
1 5 6 0 0.028232362654724594414057392555150727275758981705 
1 5 6 1 0.009373887963675704357302542746310791699215769768 
1 5 6 2 0.011721869151661146526977042015005281427875161171 
1 5 7 0 0.026095964521647752043520540610188618302345275879 
1 5 7 1 0.004976361735320204357502227310305897844955325127 
1 5 7 2 -0.007431302015753429683619923906690019066445529461 
1 5 8 4 0.008479233120721371350092532281905732816085219383 
1 5 9 3 0.008479233120721371350092532281905732816085219383 
1 6 0 5 0.198173157085587192671738421267946250736713409424 
1 6 0 6 0.005431909734446163998122791838341072434559464455 
1 6 0 7 0.009814567396264540014017008218161208787932991982 
1 6 1 5 0.009373887963675707826749494699924980523064732552 
1 6 1 6 0.075810690102891140074170550633425591513514518738 
1 6 1 7 0.058758470856337383092515835869562579318881034851 
1 6 2 5 -0.002166489173442182232520725193580801715143024921 
1 6 2 6 0.103361605317209878651674159755202708765864372253 
1 6 2 7 -0.074719228133123913315749575758673017844557762146 
1 6 3 9 0.111447652464854760068213579415896674618124961853 
1 6 4 8 0.111447652464854760068213579415896674618124961853 
1 6 5 0 0.198173157085587192671738421267946250736713409424 
1 6 5 1 0.009373887963675707826749494699924980523064732552 
1 6 5 2 -0.002166489173442182232520725193580801715143024921 
1 6 6 0 0.005431909734446163998122791838341072434559464455 
1 6 6 1 0.075810690102891140074170550633425591513514518738 
1 6 6 2 0.103361605317209878651674159755202708765864372253 
1 6 7 0 0.009814567396264540014017008218161208787932991982 
1 6 7 1 0.058758470856337383092515835869562579318881034851 
1 6 7 2 -0.074719228133123913315749575758673017844557762146 
1 6 8 4 0.111447652464854760068213579415896674618124961853 
1 6 9 3 0.111447652464854760068213579415896674618124961853 
1 7 0 5 0.203051342166836762404003025039855856448411941528 
1 7 0 6 0.010912067386523493020544783860259485663846135139 
1 7 0 7 -0.007352413263081759853267982407487579621374607086 
1 7 1 5 0.004976361735320206092225703287112992256879806519 
1 7 1 6 0.058758470856337390031409739776790956966578960419 
1 7 1 7 0.092486880427190484854627072763832984492182731628 
1 7 2 5 0.010982626541964175467813724651477969018742442131 
1 7 2 6 0.036617795691743476593771333682525437325239181519 
1 7 2 7 -0.057771560133657764990466887411457719281315803528 
1 7 3 9 0.090192420438050577291555498504749266430735588074 
1 7 4 8 0.090192420438050577291555498504749266430735588074 
1 7 5 0 0.203051342166836762404003025039855856448411941528 
1 7 5 1 0.004976361735320206092225703287112992256879806519 
1 7 5 2 0.010982626541964175467813724651477969018742442131 
1 7 6 0 0.010912067386523493020544783860259485663846135139 
1 7 6 1 0.058758470856337390031409739776790956966578960419 
1 7 6 2 0.036617795691743476593771333682525437325239181519 
1 7 7 0 -0.007352413263081759853267982407487579621374607086 
1 7 7 1 0.092486880427190484854627072763832984492182731628 
1 7 7 2 -0.057771560133657764990466887411457719281315803528 
1 7 8 4 0.090192420438050577291555498504749266430735588074 
1 7 9 3 0.090192420438050577291555498504749266430735588074 
2 5 0 5 0.054101196417298304253140628361506969667971134186 
2 5 0 6 0.012626476212720307706893763111111184116452932358 
2 5 0 7 -0.007662876149114688367758319031963765155524015427 
2 5 1 5 0.005710157683960226555897055078503399272449314594 
2 5 1 6 -0.002166489173442184400925070164589669730048626661 
2 5 1 7 0.010982626541964171998366772697863780194893479347 
2 5 2 5 0.012468463598534302791409622557239345042034983635 
2 5 2 6 -0.015584864585225125660494782664500235114246606827 
2 5 2 7 0.003605125315851919094722877190406506997533142567 
2 5 3 9 -0.004351754851046659572366692714240343775600194931 
2 5 4 8 -0.004351754851046659572366692714240343775600194931 
2 5 5 0 0.054101196417298304253140628361506969667971134186 
2 5 5 1 0.005710157683960226555897055078503399272449314594 
2 5 5 2 0.012468463598534302791409622557239345042034983635 
2 5 6 0 0.012626476212720307706893763111111184116452932358 
2 5 6 1 -0.002166489173442184400925070164589669730048626661 
2 5 6 2 -0.015584864585225125660494782664500235114246606827 
2 5 7 0 -0.007662876149114688367758319031963765155524015427 
2 5 7 1 0.010982626541964171998366772697863780194893479347 
2 5 7 2 0.003605125315851919094722877190406506997533142567 
2 5 8 4 -0.004351754851046659572366692714240343775600194931 
2 5 9 3 -0.004351754851046659572366692714240343775600194931 
2 6 0 5 0.229606361459943675296102583160973154008388519287 
2 6 0 6 -0.001926729308915087592393722282224644004600122571 
2 6 0 7 0.025464902569257482495279631962148414459079504013 
2 6 1 5 0.011721869151661146526977042015005281427875161171 
2 6 1 6 0.103361605317209878651674159755202708765864372253 
2 6 1 7 0.036617795691743511288240853218667325563728809357 
2 6 2 5 -0.015584864585225123925771306687693140702322125435 
2 6 2 6 0.198739636071043529463864274475781712681055068970 
2 6 2 7 -0.127084109744215051351901024645485449582338333130 
2 6 3 9 0.145259617700070481349783335645042825490236282349 
2 6 4 8 0.145259617700070481349783335645042825490236282349 
2 6 5 0 0.229606361459943675296102583160973154008388519287 
2 6 5 1 0.011721869151661146526977042015005281427875161171 
2 6 5 2 -0.015584864585225123925771306687693140702322125435 
2 6 6 0 -0.001926729308915087592393722282224644004600122571 
2 6 6 1 0.103361605317209878651674159755202708765864372253 
2 6 6 2 0.198739636071043529463864274475781712681055068970 
2 6 7 0 0.025464902569257482495279631962148414459079504013 
2 6 7 1 0.036617795691743511288240853218667325563728809357 
2 6 7 2 -0.127084109744215051351901024645485449582338333130 
2 6 8 4 0.145259617700070481349783335645042825490236282349 
2 6 9 3 0.145259617700070481349783335645042825490236282349 
2 7 0 5 -0.218872215029426830934511372106499038636684417725 
2 7 0 6 -0.002865279656670878354052245384764319169335067272 
2 7 0 7 -0.010108296395603455497536060647689737379550933838 
2 7 1 5 -0.007431302015753422744726019999461641418747603893 
2 7 1 6 -0.074719228133123885560173960129759507253766059875 
2 7 1 7 -0.057771560133657737234891271782544208690524101257 
2 7 2 5 0.003605125315851919962084615178810054203495383263 
2 7 2 6 -0.127084109744215051351901024645485449582338333130 
2 7 2 7 0.110320987013847890412243657465296564623713493347 
2 7 3 9 -0.104820978529940989076862933870870620012283325195 
2 7 4 8 -0.104820978529940989076862933870870620012283325195 
2 7 5 0 -0.218872215029426830934511372106499038636684417725 
2 7 5 1 -0.007431302015753422744726019999461641418747603893 
2 7 5 2 0.003605125315851919962084615178810054203495383263 
2 7 6 0 -0.002865279656670878354052245384764319169335067272 
2 7 6 1 -0.074719228133123885560173960129759507253766059875 
2 7 6 2 -0.127084109744215051351901024645485449582338333130 
2 7 7 0 -0.010108296395603455497536060647689737379550933838 
2 7 7 1 -0.057771560133657737234891271782544208690524101257 
2 7 7 2 0.110320987013847890412243657465296564623713493347 
2 7 8 4 -0.104820978529940989076862933870870620012283325195 
2 7 9 3 -0.104820978529940989076862933870870620012283325195 
3 9 0 5 0.274139722741443381259784928261069580912590026855 
3 9 0 6 0.003092218317271545717506153749809527653269469738 
3 9 0 7 0.009948147977342813516599129286532843252643942833 
3 9 1 5 0.008479233120721357472304724467448977520689368248 
3 9 1 6 0.111447652464854787823789195044810185208916664124 
3 9 1 7 0.090192420438050605047131114133662777021527290344 
3 9 2 5 -0.004351754851046665643898858633065174217335879803 
3 9 2 6 0.145259617700070453594207720016129314899444580078 
3 9 2 7 -0.104820978529940947443499510427500354126095771790 
3 9 3 9 0.186756416044122325326171107917616609483957290649 
3 9 4 8 0.148849215590585864932293702622700948268175125122 
3 9 5 0 0.274139722741443381259784928261069580912590026855 
3 9 5 1 0.008479233120721357472304724467448977520689368248 
3 9 5 2 -0.004351754851046665643898858633065174217335879803 
3 9 6 0 0.003092218317271545717506153749809527653269469738 
3 9 6 1 0.111447652464854787823789195044810185208916664124 
3 9 6 2 0.145259617700070453594207720016129314899444580078 
3 9 7 0 0.009948147977342813516599129286532843252643942833 
3 9 7 1 0.090192420438050605047131114133662777021527290344 
3 9 7 2 -0.104820978529940947443499510427500354126095771790 
3 9 8 4 0.148849215590585864932293702622700948268175125122 
3 9 9 3 0.186756416044122325326171107917616609483957290649 
4 8 0 5 0.274139722741443381259784928261069580912590026855 
4 8 0 6 0.003092218317271545717506153749809527653269469738 
4 8 0 7 0.009948147977342813516599129286532843252643942833 
4 8 1 5 0.008479233120721357472304724467448977520689368248 
4 8 1 6 0.111447652464854787823789195044810185208916664124 
4 8 1 7 0.090192420438050605047131114133662777021527290344 
4 8 2 5 -0.004351754851046665643898858633065174217335879803 
4 8 2 6 0.145259617700070453594207720016129314899444580078 
4 8 2 7 -0.104820978529940947443499510427500354126095771790 
4 8 3 9 0.148849215590585864932293702622700948268175125122 
4 8 4 8 0.186756416044122325326171107917616609483957290649 
4 8 5 0 0.274139722741443381259784928261069580912590026855 
4 8 5 1 0.008479233120721357472304724467448977520689368248 
4 8 5 2 -0.004351754851046665643898858633065174217335879803 
4 8 6 0 0.003092218317271545717506153749809527653269469738 
4 8 6 1 0.111447652464854787823789195044810185208916664124 
4 8 6 2 0.145259617700070453594207720016129314899444580078 
4 8 7 0 0.009948147977342813516599129286532843252643942833 
4 8 7 1 0.090192420438050605047131114133662777021527290344 
4 8 7 2 -0.104820978529940947443499510427500354126095771790 
4 8 8 4 0.186756416044122325326171107917616609483957290649 
4 8 9 3 0.148849215590585864932293702622700948268175125122 
5 0 0 5 1.822545764771054344066669727908447384834289550781 
5 0 0 6 0.190817817940288875222520914576307404786348342896 
5 0 0 7 0.142613271860299178905862049759889487177133560181 
5 0 1 5 0.203335618860435690669064001667720731347799301147 
5 0 1 6 0.198173157085587164916162805639032740145921707153 
5 0 1 7 0.203051342166836762404003025039855856448411941528 
5 0 2 5 0.054101196417298290375352820547050214372575283051 
5 0 2 6 0.229606361459943647540526967532059643417596817017 
5 0 2 7 -0.218872215029426830934511372106499038636684417725 
5 0 3 9 0.274139722741443492282087390776723623275756835938 
5 0 4 8 0.274139722741443492282087390776723623275756835938 
5 0 5 0 1.822545764771054344066669727908447384834289550781 
5 0 5 1 0.203335618860435690669064001667720731347799301147 
5 0 5 2 0.054101196417298290375352820547050214372575283051 
5 0 6 0 0.190817817940288875222520914576307404786348342896 
5 0 6 1 0.198173157085587164916162805639032740145921707153 
5 0 6 2 0.229606361459943647540526967532059643417596817017 
5 0 7 0 0.142613271860299178905862049759889487177133560181 
5 0 7 1 0.203051342166836762404003025039855856448411941528 
5 0 7 2 -0.218872215029426830934511372106499038636684417725 
5 0 8 4 0.274139722741443492282087390776723623275756835938 
5 0 9 3 0.274139722741443492282087390776723623275756835938 
5 1 0 5 0.203335618860435718424639617296634241938591003418 
5 1 0 6 0.028232362654724594414057392555150727275758981705 
5 1 0 7 0.026095964521647752043520540610188618302345275879 
5 1 1 5 0.031802536131646096106972976258475682698190212250 
5 1 1 6 0.009373887963675704357302542746310791699215769768 
5 1 1 7 0.004976361735320204357502227310305897844955325127 
5 1 2 5 0.005710157683960226555897055078503399272449314594 
5 1 2 6 0.011721869151661146526977042015005281427875161171 
5 1 2 7 -0.007431302015753429683619923906690019066445529461 
5 1 3 9 0.008479233120721371350092532281905732816085219383 
5 1 4 8 0.008479233120721371350092532281905732816085219383 
5 1 5 0 0.203335618860435718424639617296634241938591003418 
5 1 5 1 0.031802536131646096106972976258475682698190212250 
5 1 5 2 0.005710157683960226555897055078503399272449314594 
5 1 6 0 0.028232362654724594414057392555150727275758981705 
5 1 6 1 0.009373887963675704357302542746310791699215769768 
5 1 6 2 0.011721869151661146526977042015005281427875161171 
5 1 7 0 0.026095964521647752043520540610188618302345275879 
5 1 7 1 0.004976361735320204357502227310305897844955325127 
5 1 7 2 -0.007431302015753429683619923906690019066445529461 
5 1 8 4 0.008479233120721371350092532281905732816085219383 
5 1 9 3 0.008479233120721371350092532281905732816085219383 
5 2 0 5 0.054101196417298304253140628361506969667971134186 
5 2 0 6 0.012626476212720307706893763111111184116452932358 
5 2 0 7 -0.007662876149114688367758319031963765155524015427 
5 2 1 5 0.005710157683960226555897055078503399272449314594 
5 2 1 6 -0.002166489173442184400925070164589669730048626661 
5 2 1 7 0.010982626541964171998366772697863780194893479347 
5 2 2 5 0.012468463598534302791409622557239345042034983635 
5 2 2 6 -0.015584864585225125660494782664500235114246606827 
5 2 2 7 0.003605125315851919094722877190406506997533142567 
5 2 3 9 -0.004351754851046659572366692714240343775600194931 
5 2 4 8 -0.004351754851046659572366692714240343775600194931 
5 2 5 0 0.054101196417298304253140628361506969667971134186 
5 2 5 1 0.005710157683960226555897055078503399272449314594 
5 2 5 2 0.012468463598534302791409622557239345042034983635 
5 2 6 0 0.012626476212720307706893763111111184116452932358 
5 2 6 1 -0.002166489173442184400925070164589669730048626661 
5 2 6 2 -0.015584864585225125660494782664500235114246606827 
5 2 7 0 -0.007662876149114688367758319031963765155524015427 
5 2 7 1 0.010982626541964171998366772697863780194893479347 
5 2 7 2 0.003605125315851919094722877190406506997533142567 
5 2 8 4 -0.004351754851046659572366692714240343775600194931 
5 2 9 3 -0.004351754851046659572366692714240343775600194931 
6 0 0 5 0.190817817940288902978096530205220915377140045166 
6 0 0 6 0.030060257229890811198069755505457578692585229874 
6 0 0 7 0.015043503041565474756535714107030798913910984993 
6 0 1 5 0.028232362654724594414057392555150727275758981705 
6 0 1 6 0.005431909734446167467569743791955261258408427238 
6 0 1 7 0.010912067386523506898332591674716240959241986275 
6 0 2 5 0.012626476212720305972170287134304089704528450966 
6 0 2 6 -0.001926729308915086725031984293821096798637881875 
6 0 2 7 -0.002865279656670885292946149291992696817032992840 
6 0 3 9 0.003092218317271559595293961564266282948665320873 
6 0 4 8 0.003092218317271559595293961564266282948665320873 
6 0 5 0 0.190817817940288902978096530205220915377140045166 
6 0 5 1 0.028232362654724594414057392555150727275758981705 
6 0 5 2 0.012626476212720305972170287134304089704528450966 
6 0 6 0 0.030060257229890811198069755505457578692585229874 
6 0 6 1 0.005431909734446167467569743791955261258408427238 
6 0 6 2 -0.001926729308915086725031984293821096798637881875 
6 0 7 0 0.015043503041565474756535714107030798913910984993 
6 0 7 1 0.010912067386523506898332591674716240959241986275 
6 0 7 2 -0.002865279656670885292946149291992696817032992840 
6 0 8 4 0.003092218317271559595293961564266282948665320873 
6 0 9 3 0.003092218317271559595293961564266282948665320873 
6 1 0 5 0.198173157085587192671738421267946250736713409424 
6 1 0 6 0.005431909734446163998122791838341072434559464455 
6 1 0 7 0.009814567396264540014017008218161208787932991982 
6 1 1 5 0.009373887963675707826749494699924980523064732552 
6 1 1 6 0.075810690102891140074170550633425591513514518738 
6 1 1 7 0.058758470856337383092515835869562579318881034851 
6 1 2 5 -0.002166489173442182232520725193580801715143024921 
6 1 2 6 0.103361605317209878651674159755202708765864372253 
6 1 2 7 -0.074719228133123913315749575758673017844557762146 
6 1 3 9 0.111447652464854760068213579415896674618124961853 
6 1 4 8 0.111447652464854760068213579415896674618124961853 
6 1 5 0 0.198173157085587192671738421267946250736713409424 
6 1 5 1 0.009373887963675707826749494699924980523064732552 
6 1 5 2 -0.002166489173442182232520725193580801715143024921 
6 1 6 0 0.005431909734446163998122791838341072434559464455 
6 1 6 1 0.075810690102891140074170550633425591513514518738 
6 1 6 2 0.103361605317209878651674159755202708765864372253 
6 1 7 0 0.009814567396264540014017008218161208787932991982 
[...]
8 4 1 7 0.090192420438050605047131114133662777021527290344 
8 4 2 5 -0.004351754851046665643898858633065174217335879803 
8 4 2 6 0.145259617700070453594207720016129314899444580078 
8 4 2 7 -0.104820978529940947443499510427500354126095771790 
8 4 3 9 0.148849215590585864932293702622700948268175125122 
8 4 4 8 0.186756416044122325326171107917616609483957290649 
8 4 5 0 0.274139722741443381259784928261069580912590026855 
8 4 5 1 0.008479233120721357472304724467448977520689368248 
8 4 5 2 -0.004351754851046665643898858633065174217335879803 
8 4 6 0 0.003092218317271545717506153749809527653269469738 
8 4 6 1 0.111447652464854787823789195044810185208916664124 
8 4 6 2 0.145259617700070453594207720016129314899444580078 
8 4 7 0 0.009948147977342813516599129286532843252643942833 
8 4 7 1 0.090192420438050605047131114133662777021527290344 
8 4 7 2 -0.104820978529940947443499510427500354126095771790 
8 4 8 4 0.186756416044122325326171107917616609483957290649 
8 4 9 3 0.148849215590585864932293702622700948268175125122 
9 3 0 5 0.274139722741443381259784928261069580912590026855 
9 3 0 6 0.003092218317271545717506153749809527653269469738 
9 3 0 7 0.009948147977342813516599129286532843252643942833 
9 3 1 5 0.008479233120721357472304724467448977520689368248 
9 3 1 6 0.111447652464854787823789195044810185208916664124 
9 3 1 7 0.090192420438050605047131114133662777021527290344 
9 3 2 5 -0.004351754851046665643898858633065174217335879803 
9 3 2 6 0.145259617700070453594207720016129314899444580078 
9 3 2 7 -0.104820978529940947443499510427500354126095771790 
9 3 3 9 0.186756416044122325326171107917616609483957290649 
9 3 4 8 0.148849215590585864932293702622700948268175125122 
9 3 5 0 0.274139722741443381259784928261069580912590026855 
9 3 5 1 0.008479233120721357472304724467448977520689368248 
9 3 5 2 -0.004351754851046665643898858633065174217335879803 
9 3 6 0 0.003092218317271545717506153749809527653269469738 
9 3 6 1 0.111447652464854787823789195044810185208916664124 
9 3 6 2 0.145259617700070453594207720016129314899444580078 
9 3 7 0 0.009948147977342813516599129286532843252643942833 
9 3 7 1 0.090192420438050605047131114133662777021527290344 
9 3 7 2 -0.104820978529940947443499510427500354126095771790 
9 3 8 4 0.148849215590585864932293702622700948268175125122 
9 3 9 3 0.186756416044122325326171107917616609483957290649 
0 8 0 8 0.009768745426816192317653886334483104292303323746 
0 8 1 8 -0.017033594657882674544557843887560011353343725204 
0 8 2 8 -0.003521505197816936737209569940887377015314996243 
0 8 4 5 0.011921255478517574916130783435619377996772527695 
0 8 4 6 -0.016055338748452125524623923524814017582684755325 
0 8 4 7 -0.010570105945067121561153911102337588090449571609 
0 8 5 4 0.011921255478517574916130783435619377996772527695 
0 8 6 4 -0.016055338748452125524623923524814017582684755325 
0 8 7 4 -0.010570105945067121561153911102337588090449571609 
0 8 8 0 0.009768745426816192317653886334483104292303323746 
0 8 8 1 -0.017033594657882674544557843887560011353343725204 
0 8 8 2 -0.003521505197816936737209569940887377015314996243 
1 8 0 8 -0.017033594657882674544557843887560011353343725204 
1 8 1 8 0.107411654263497136074789750637137331068515777588 
1 8 2 8 0.007566189755328450033955434150811925064772367477 
1 8 4 5 -0.019435768038405940721924380909513274673372507095 
1 8 4 6 0.079292095009431060037563554487860528752207756042 
1 8 4 7 0.058866132625863695770895844816550379619002342224 
1 8 5 4 -0.019435768038405940721924380909513274673372507095 
1 8 6 4 0.079292095009431060037563554487860528752207756042 
1 8 7 4 0.058866132625863695770895844816550379619002342224 
1 8 8 0 -0.017033594657882674544557843887560011353343725204 
1 8 8 1 0.107411654263497136074789750637137331068515777588 
1 8 8 2 0.007566189755328450033955434150811925064772367477 
2 8 0 8 -0.003521505197816935869847831952483829809352755547 
2 8 1 8 0.007566189755328446564508482197197736240923404694 
2 8 2 8 0.026336107924097303112365153765495051629841327667 
2 8 4 5 -0.004704100484979656382478196974261663854122161865 
2 8 4 6 0.031294511606094928268806398818924208171665668488 
2 8 4 7 -0.006387129735480789188839523262686270754784345627 
2 8 5 4 -0.004704100484979656382478196974261663854122161865 
2 8 6 4 0.031294511606094928268806398818924208171665668488 
2 8 7 4 -0.006387129735480789188839523262686270754784345627 
2 8 8 0 -0.003521505197816935869847831952483829809352755547 
2 8 8 1 0.007566189755328446564508482197197736240923404694 
2 8 8 2 0.026336107924097303112365153765495051629841327667 
4 5 0 8 0.011921255478517574916130783435619377996772527695 
4 5 1 8 -0.019435768038405940721924380909513274673372507095 
4 5 2 8 -0.004704100484979655515116458985858116648159921169 
4 5 4 5 0.014583756865726200599442385907877905992791056633 
4 5 4 6 -0.019096397720220932570089900082166423089802265167 
4 5 4 7 -0.011997696155393776373809799906666739843785762787 
4 5 5 4 0.014583756865726200599442385907877905992791056633 
4 5 6 4 -0.019096397720220932570089900082166423089802265167 
4 5 7 4 -0.011997696155393776373809799906666739843785762787 
4 5 8 0 0.011921255478517574916130783435619377996772527695 
4 5 8 1 -0.019435768038405940721924380909513274673372507095 
4 5 8 2 -0.004704100484979655515116458985858116648159921169 
4 6 0 8 -0.016055338748452122055176971571199828758835792542 
4 6 1 8 0.079292095009431046159775746673403773456811904907 
4 6 2 8 0.031294511606094928268806398818924208171665668488 
4 6 4 5 -0.019096397720220932570089900082166423089802265167 
4 6 4 6 0.085206522445820165323482342500938102602958679199 
4 6 4 7 0.034815459861484585046831341514916857704520225525 
4 6 5 4 -0.019096397720220932570089900082166423089802265167 
4 6 6 4 0.085206522445820165323482342500938102602958679199 
4 6 7 4 0.034815459861484585046831341514916857704520225525 
4 6 8 0 -0.016055338748452122055176971571199828758835792542 
4 6 8 1 0.079292095009431046159775746673403773456811904907 
4 6 8 2 0.031294511606094928268806398818924208171665668488 
4 7 0 8 -0.010570105945067121561153911102337588090449571609 
4 7 1 8 0.058866132625863674954214133094865246675908565521 
4 7 2 8 -0.006387129735480789188839523262686270754784345627 
4 7 4 5 -0.011997696155393776373809799906666739843785762787 
4 7 4 6 0.034815459861484578107937437607688480056822299957 
4 7 4 7 0.044673684770283113298905419696893659420311450958 
4 7 5 4 -0.011997696155393776373809799906666739843785762787 
4 7 6 4 0.034815459861484578107937437607688480056822299957 
4 7 7 4 0.044673684770283113298905419696893659420311450958 
4 7 8 0 -0.010570105945067121561153911102337588090449571609 
4 7 8 1 0.058866132625863674954214133094865246675908565521 
4 7 8 2 -0.006387129735480789188839523262686270754784345627 
5 4 0 8 0.011921255478517574916130783435619377996772527695 
5 4 1 8 -0.019435768038405940721924380909513274673372507095 
5 4 2 8 -0.004704100484979655515116458985858116648159921169 
5 4 4 5 0.014583756865726200599442385907877905992791056633 
5 4 4 6 -0.019096397720220932570089900082166423089802265167 
5 4 4 7 -0.011997696155393776373809799906666739843785762787 
5 4 5 4 0.014583756865726200599442385907877905992791056633 
5 4 6 4 -0.019096397720220932570089900082166423089802265167 
5 4 7 4 -0.011997696155393776373809799906666739843785762787 
5 4 8 0 0.011921255478517574916130783435619377996772527695 
5 4 8 1 -0.019435768038405940721924380909513274673372507095 
5 4 8 2 -0.004704100484979655515116458985858116648159921169 
6 4 0 8 -0.016055338748452122055176971571199828758835792542 
6 4 1 8 0.079292095009431046159775746673403773456811904907 
6 4 2 8 0.031294511606094928268806398818924208171665668488 
6 4 4 5 -0.019096397720220932570089900082166423089802265167 
6 4 4 6 0.085206522445820165323482342500938102602958679199 
6 4 4 7 0.034815459861484585046831341514916857704520225525 
6 4 5 4 -0.019096397720220932570089900082166423089802265167 
6 4 6 4 0.085206522445820165323482342500938102602958679199 
6 4 7 4 0.034815459861484585046831341514916857704520225525 
6 4 8 0 -0.016055338748452122055176971571199828758835792542 
6 4 8 1 0.079292095009431046159775746673403773456811904907 
6 4 8 2 0.031294511606094928268806398818924208171665668488 
7 4 0 8 -0.010570105945067121561153911102337588090449571609 
7 4 1 8 0.058866132625863674954214133094865246675908565521 
7 4 2 8 -0.006387129735480789188839523262686270754784345627 
7 4 4 5 -0.011997696155393776373809799906666739843785762787 
7 4 4 6 0.034815459861484578107937437607688480056822299957 
7 4 4 7 0.044673684770283113298905419696893659420311450958 
7 4 5 4 -0.011997696155393776373809799906666739843785762787 
7 4 6 4 0.034815459861484578107937437607688480056822299957 
7 4 7 4 0.044673684770283113298905419696893659420311450958 
7 4 8 0 -0.010570105945067121561153911102337588090449571609 
7 4 8 1 0.058866132625863674954214133094865246675908565521 
7 4 8 2 -0.006387129735480789188839523262686270754784345627 
8 0 0 8 0.009768745426816192317653886334483104292303323746 
8 0 1 8 -0.017033594657882674544557843887560011353343725204 
8 0 2 8 -0.003521505197816936737209569940887377015314996243 
8 0 4 5 0.011921255478517574916130783435619377996772527695 
8 0 4 6 -0.016055338748452125524623923524814017582684755325 
8 0 4 7 -0.010570105945067121561153911102337588090449571609 
8 0 5 4 0.011921255478517574916130783435619377996772527695 
8 0 6 4 -0.016055338748452125524623923524814017582684755325 
8 0 7 4 -0.010570105945067121561153911102337588090449571609 
8 0 8 0 0.009768745426816192317653886334483104292303323746 
8 0 8 1 -0.017033594657882674544557843887560011353343725204 
8 0 8 2 -0.003521505197816936737209569940887377015314996243 
8 1 0 8 -0.017033594657882674544557843887560011353343725204 
8 1 1 8 0.107411654263497136074789750637137331068515777588 
8 1 2 8 0.007566189755328450033955434150811925064772367477 
8 1 4 5 -0.019435768038405940721924380909513274673372507095 
8 1 4 6 0.079292095009431060037563554487860528752207756042 
8 1 4 7 0.058866132625863695770895844816550379619002342224 
8 1 5 4 -0.019435768038405940721924380909513274673372507095 
8 1 6 4 0.079292095009431060037563554487860528752207756042 
8 1 7 4 0.058866132625863695770895844816550379619002342224 
8 1 8 0 -0.017033594657882674544557843887560011353343725204 
8 1 8 1 0.107411654263497136074789750637137331068515777588 
8 1 8 2 0.007566189755328450033955434150811925064772367477 
8 2 0 8 -0.003521505197816935869847831952483829809352755547 
8 2 1 8 0.007566189755328446564508482197197736240923404694 
8 2 2 8 0.026336107924097303112365153765495051629841327667 
8 2 4 5 -0.004704100484979656382478196974261663854122161865 
8 2 4 6 0.031294511606094928268806398818924208171665668488 
8 2 4 7 -0.006387129735480789188839523262686270754784345627 
8 2 5 4 -0.004704100484979656382478196974261663854122161865 
8 2 6 4 0.031294511606094928268806398818924208171665668488 
8 2 7 4 -0.006387129735480789188839523262686270754784345627 
8 2 8 0 -0.003521505197816935869847831952483829809352755547 
8 2 8 1 0.007566189755328446564508482197197736240923404694 
8 2 8 2 0.026336107924097303112365153765495051629841327667 
0 9 0 9 0.009768745426816192317653886334483104292303323746 
0 9 1 9 -0.017033594657882674544557843887560011353343725204 
0 9 2 9 -0.003521505197816936737209569940887377015314996243 
0 9 3 5 0.011921255478517574916130783435619377996772527695 
0 9 3 6 -0.016055338748452125524623923524814017582684755325 
0 9 3 7 -0.010570105945067121561153911102337588090449571609 
0 9 5 3 0.011921255478517574916130783435619377996772527695 
0 9 6 3 -0.016055338748452125524623923524814017582684755325 
0 9 7 3 -0.010570105945067121561153911102337588090449571609 
0 9 9 0 0.009768745426816192317653886334483104292303323746 
0 9 9 1 -0.017033594657882674544557843887560011353343725204 
0 9 9 2 -0.003521505197816936737209569940887377015314996243 
1 9 0 9 -0.017033594657882674544557843887560011353343725204 
1 9 1 9 0.107411654263497136074789750637137331068515777588 
1 9 2 9 0.007566189755328450033955434150811925064772367477 
1 9 3 5 -0.019435768038405940721924380909513274673372507095 
1 9 3 6 0.079292095009431060037563554487860528752207756042 
1 9 3 7 0.058866132625863695770895844816550379619002342224 
1 9 5 3 -0.019435768038405940721924380909513274673372507095 
1 9 6 3 0.079292095009431060037563554487860528752207756042 
1 9 7 3 0.058866132625863695770895844816550379619002342224 
1 9 9 0 -0.017033594657882674544557843887560011353343725204 
1 9 9 1 0.107411654263497136074789750637137331068515777588 
1 9 9 2 0.007566189755328450033955434150811925064772367477 
2 9 0 9 -0.003521505197816935869847831952483829809352755547 
2 9 1 9 0.007566189755328446564508482197197736240923404694 
2 9 2 9 0.026336107924097303112365153765495051629841327667 
2 9 3 5 -0.004704100484979656382478196974261663854122161865 
2 9 3 6 0.031294511606094928268806398818924208171665668488 
2 9 3 7 -0.006387129735480789188839523262686270754784345627 
2 9 5 3 -0.004704100484979656382478196974261663854122161865 
2 9 6 3 0.031294511606094928268806398818924208171665668488 
2 9 7 3 -0.006387129735480789188839523262686270754784345627 
2 9 9 0 -0.003521505197816935869847831952483829809352755547 
2 9 9 1 0.007566189755328446564508482197197736240923404694 
2 9 9 2 0.026336107924097303112365153765495051629841327667 
3 5 0 9 0.011921255478517574916130783435619377996772527695 
3 5 1 9 -0.019435768038405940721924380909513274673372507095 
3 5 2 9 -0.004704100484979655515116458985858116648159921169 
3 5 3 5 0.014583756865726200599442385907877905992791056633 
3 5 3 6 -0.019096397720220932570089900082166423089802265167 
3 5 3 7 -0.011997696155393776373809799906666739843785762787 
3 5 5 3 0.014583756865726200599442385907877905992791056633 
3 5 6 3 -0.019096397720220932570089900082166423089802265167 
3 5 7 3 -0.011997696155393776373809799906666739843785762787 
3 5 9 0 0.011921255478517574916130783435619377996772527695 
3 5 9 1 -0.019435768038405940721924380909513274673372507095 
3 5 9 2 -0.004704100484979655515116458985858116648159921169 
3 6 0 9 -0.016055338748452122055176971571199828758835792542 
3 6 1 9 0.079292095009431046159775746673403773456811904907 
3 6 2 9 0.031294511606094928268806398818924208171665668488 
3 6 3 5 -0.019096397720220932570089900082166423089802265167 
3 6 3 6 0.085206522445820165323482342500938102602958679199 
3 6 3 7 0.034815459861484585046831341514916857704520225525 
3 6 5 3 -0.019096397720220932570089900082166423089802265167 
3 6 6 3 0.085206522445820165323482342500938102602958679199 
3 6 7 3 0.034815459861484585046831341514916857704520225525 
3 6 9 0 -0.016055338748452122055176971571199828758835792542 
3 6 9 1 0.079292095009431046159775746673403773456811904907 
3 6 9 2 0.031294511606094928268806398818924208171665668488 
3 7 0 9 -0.010570105945067121561153911102337588090449571609 
3 7 1 9 0.058866132625863674954214133094865246675908565521 
3 7 2 9 -0.006387129735480789188839523262686270754784345627 
3 7 3 5 -0.011997696155393776373809799906666739843785762787 
3 7 3 6 0.034815459861484578107937437607688480056822299957 
3 7 3 7 0.044673684770283113298905419696893659420311450958 
3 7 5 3 -0.011997696155393776373809799906666739843785762787 
3 7 6 3 0.034815459861484578107937437607688480056822299957 
3 7 7 3 0.044673684770283113298905419696893659420311450958 
3 7 9 0 -0.010570105945067121561153911102337588090449571609 
3 7 9 1 0.058866132625863674954214133094865246675908565521 
3 7 9 2 -0.006387129735480789188839523262686270754784345627 
5 3 0 9 0.011921255478517574916130783435619377996772527695 
5 3 1 9 -0.019435768038405940721924380909513274673372507095 
5 3 2 9 -0.004704100484979655515116458985858116648159921169 
5 3 3 5 0.014583756865726200599442385907877905992791056633 
5 3 3 6 -0.019096397720220932570089900082166423089802265167 
5 3 3 7 -0.011997696155393776373809799906666739843785762787 
5 3 5 3 0.014583756865726200599442385907877905992791056633 
5 3 6 3 -0.019096397720220932570089900082166423089802265167 
5 3 7 3 -0.011997696155393776373809799906666739843785762787 
5 3 9 0 0.011921255478517574916130783435619377996772527695 
5 3 9 1 -0.019435768038405940721924380909513274673372507095 
5 3 9 2 -0.004704100484979655515116458985858116648159921169 
6 3 0 9 -0.016055338748452122055176971571199828758835792542 
6 3 1 9 0.079292095009431046159775746673403773456811904907 
6 3 2 9 0.031294511606094928268806398818924208171665668488 
6 3 3 5 -0.019096397720220932570089900082166423089802265167 
6 3 3 6 0.085206522445820165323482342500938102602958679199 
6 3 3 7 0.034815459861484585046831341514916857704520225525 
6 3 5 3 -0.019096397720220932570089900082166423089802265167 
6 3 6 3 0.085206522445820165323482342500938102602958679199 
6 3 7 3 0.034815459861484585046831341514916857704520225525 
6 3 9 0 -0.016055338748452122055176971571199828758835792542 
6 3 9 1 0.079292095009431046159775746673403773456811904907 
6 3 9 2 0.031294511606094928268806398818924208171665668488 
7 3 0 9 -0.010570105945067121561153911102337588090449571609 
7 3 1 9 0.058866132625863674954214133094865246675908565521 
7 3 2 9 -0.006387129735480789188839523262686270754784345627 
7 3 3 5 -0.011997696155393776373809799906666739843785762787 
7 3 3 6 0.034815459861484578107937437607688480056822299957 
7 3 3 7 0.044673684770283113298905419696893659420311450958 
7 3 5 3 -0.011997696155393776373809799906666739843785762787 
7 3 6 3 0.034815459861484578107937437607688480056822299957 
7 3 7 3 0.044673684770283113298905419696893659420311450958 
7 3 9 0 -0.010570105945067121561153911102337588090449571609 
7 3 9 1 0.058866132625863674954214133094865246675908565521 
7 3 9 2 -0.006387129735480789188839523262686270754784345627 
9 0 0 9 0.009768745426816192317653886334483104292303323746 
9 0 1 9 -0.017033594657882674544557843887560011353343725204 
9 0 2 9 -0.003521505197816936737209569940887377015314996243 
9 0 3 5 0.011921255478517574916130783435619377996772527695 
9 0 3 6 -0.016055338748452125524623923524814017582684755325 
9 0 3 7 -0.010570105945067121561153911102337588090449571609 
9 0 5 3 0.011921255478517574916130783435619377996772527695 
9 0 6 3 -0.016055338748452125524623923524814017582684755325 
9 0 7 3 -0.010570105945067121561153911102337588090449571609 
9 0 9 0 0.009768745426816192317653886334483104292303323746 
9 0 9 1 -0.017033594657882674544557843887560011353343725204 
9 0 9 2 -0.003521505197816936737209569940887377015314996243 
9 1 0 9 -0.017033594657882674544557843887560011353343725204 
9 1 1 9 0.107411654263497136074789750637137331068515777588 
9 1 2 9 0.007566189755328450033955434150811925064772367477 
9 1 3 5 -0.019435768038405940721924380909513274673372507095 
9 1 3 6 0.079292095009431060037563554487860528752207756042 
9 1 3 7 0.058866132625863695770895844816550379619002342224 
9 1 5 3 -0.019435768038405940721924380909513274673372507095 
9 1 6 3 0.079292095009431060037563554487860528752207756042 
9 1 7 3 0.058866132625863695770895844816550379619002342224 
9 1 9 0 -0.017033594657882674544557843887560011353343725204 
9 1 9 1 0.107411654263497136074789750637137331068515777588 
9 1 9 2 0.007566189755328450033955434150811925064772367477 
9 2 0 9 -0.003521505197816935869847831952483829809352755547 
9 2 1 9 0.007566189755328446564508482197197736240923404694 
9 2 2 9 0.026336107924097303112365153765495051629841327667 
9 2 3 5 -0.004704100484979656382478196974261663854122161865 
9 2 3 6 0.031294511606094928268806398818924208171665668488 
9 2 3 7 -0.006387129735480789188839523262686270754784345627 
9 2 5 3 -0.004704100484979656382478196974261663854122161865 
9 2 6 3 0.031294511606094928268806398818924208171665668488 
9 2 7 3 -0.006387129735480789188839523262686270754784345627 
9 2 9 0 -0.003521505197816935869847831952483829809352755547 
9 2 9 1 0.007566189755328446564508482197197736240923404694 
9 2 9 2 0.026336107924097303112365153765495051629841327667 
****  HF Energy = -106.754044360322893680859124287962913513183593750000 
****  Molecular Integrals For CheMPS End Here 

*** PSI4 exiting successfully. Buy a developer a beer!
