    -----------------------------------------------------------------------
          PSI4: An Open-Source Ab Initio Electronic Structure Package
                              PSI 4.0.0-beta5 Driver

    J. M. Turney, A. C. Simmonett, R. M. Parrish, E. G. Hohenstein,
    F. A. Evangelista, J. T. Fermann, B. J. Mintz, L. A. Burns, J. J. Wilke,
    M. L. Abrams, N. J. Russ, M. L. Leininger, C. L. Janssen, E. T. Seidl,
    W. D. Allen, H. F. Schaefer, R. A. King, E. F. Valeev, C. D. Sherrill,
    and T. D. Crawford, WIREs Comput. Mol. Sci., (2011) (doi: 10.1002/wcms.93)

                         Additional Contributions by
    A. E. DePrince, M. Saitow, U. Bozkaya, A. Yu. Sokolov
    -----------------------------------------------------------------------

    Process ID:  29927
    PSI4DATADIR: /usr/local/psi4/share/psi

    Using LocalCommunicator (Number of processes = 1)

    Memory level set to 256.000 MB

  ==> Input File <==

--------------------------------------------------------------------------
molecule N2 {
N          0.000000000000     0.000000000000     0.000000000000
N          0.000000000000     0.000000000000     2.060000000000
units au
}

plugin_load("./mointegrals.so")

set basis sto-3g
set mointegrals print 1
set guess sad
set reference rhf
set d_convergence 1e-13
set e_convergence 1e-13
set ints_tolerance 0.0

scf()

plugin("mointegrals.so")

--------------------------------------------------------------------------
./mointegrals.so loaded.

*** tstart() called on seb-precision
*** at Thu Nov  6 12:16:51 2014

	There are an even number of electrons - assuming singlet.
	Specify the multiplicity with the MULTP option in the
	input if this is incorrect


         ---------------------------------------------------------
                                   SCF
            by Justin Turney, Rob Parrish, and Andy Simmonett
                              RHF Reference
                        1 Threads,    256 MiB Core
         ---------------------------------------------------------

  ==> Geometry <==

    Molecular point group: d2h
    Full point group: D_inf_h

    Geometry (in Bohr), charge = 0, multiplicity = 1:

       Center              X                  Y                   Z       
    ------------   -----------------  -----------------  -----------------
           N          0.000000000000     0.000000000000    -1.030000000000
           N          0.000000000000     0.000000000000     1.030000000000

  Running in d2h symmetry.

  Nuclear repulsion =   23.786407766990290

  Charge       = 0
  Multiplicity = 1
  Electrons    = 14
  Nalpha       = 7
  Nbeta        = 7

  ==> Algorithm <==

  SCF Algorithm Type is PK.
  DIIS enabled.
  MOM disabled.
  Fractional occupation disabled.
  Guess Type is SAD.
  Energy threshold   = 1.00e-13
  Density threshold  = 1.00e-13
  Integral threshold = 0.00e+00

  ==> Primary Basis <==

  Basis Set: sto-3g
    Number of shells: 6
    Number of basis function: 10
    Number of Cartesian functions: 10
    Spherical Harmonics?: true
    Max angular momentum: 1

  ==> Pre-Iterations <==

   -------------------------------------------------------
    Irrep   Nso     Nmo     Nalpha   Nbeta   Ndocc  Nsocc
   -------------------------------------------------------
     Ag         3       3       0       0       0       0
     B1g        0       0       0       0       0       0
     B2g        1       1       0       0       0       0
     B3g        1       1       0       0       0       0
     Au         0       0       0       0       0       0
     B1u        3       3       0       0       0       0
     B2u        1       1       0       0       0       0
     B3u        1       1       0       0       0       0
   -------------------------------------------------------
    Total      10      10       7       7       7       0
   -------------------------------------------------------

  Starting with a DF guess...

 OEINTS: Wrapper to libmints.
   by Justin Turney

   Calculation information:
      Number of atoms:                   2
      Number of AO shells:               6
      Number of SO shells:               3
      Number of primitives:             18
      Number of atomic orbitals:        10
      Number of basis functions:        10

      Number of irreps:                  8
      Number of functions per irrep: [   3    0    1    1    0    3    1    1 ]

      Overlap, kinetic, potential, dipole, and quadrupole integrals
        stored in file 35.

  ==> Integral Setup <==

  ==> DFJK: Density-Fitted J/K Matrices <==

    J tasked:                  Yes
    K tasked:                  Yes
    wK tasked:                  No
    OpenMP threads:              1
    Integrals threads:           1
    Memory (MB):               183
    Algorithm:                Core
    Integral Cache:           NONE
    Schwarz Cutoff:          0E+00
    Fitting Condition:       1E-12

   => Auxiliary Basis Set <=

  Basis Set: CC-PVDZ-JKFIT
    Number of shells: 48
    Number of basis function: 140
    Number of Cartesian functions: 162
    Spherical Harmonics?: true
    Max angular momentum: 3

  Minimum eigenvalue in the overlap matrix is 1.5785510873E-01.
  Using Symmetric Orthogonalization.
  SCF Guess: Superposition of Atomic Densities via on-the-fly atomic UHF.

  ==> Iterations <==

                           Total Energy        Delta E     RMS |[F,P]|

   @DF-RHF iter   0:  -107.64017479272854   -1.07640e+02   4.87964e-01 
   @DF-RHF iter   1:  -107.49328708145325    1.46888e-01   7.80922e-03 
   @DF-RHF iter   2:  -107.49339435224081   -1.07271e-04   5.17904e-04 DIIS
   @DF-RHF iter   3:  -107.49339610308058   -1.75084e-06   5.86931e-05 DIIS
   @DF-RHF iter   4:  -107.49339615490055   -5.18200e-08   1.96656e-09 DIIS
   @DF-RHF iter   5:  -107.49339615490058   -2.84217e-14   6.42759e-14 DIIS

  DF guess converged.

  ==> Integral Setup <==

 MINTS: Wrapper to libmints.
   by Justin Turney

   Calculation information:
      Number of atoms:                   2
      Number of AO shells:               6
      Number of SO shells:               3
      Number of primitives:             18
      Number of atomic orbitals:        10
      Number of basis functions:        10

      Number of irreps:                  8
      Integral cutoff                 0.00e+00
      Number of functions per irrep: [   3    0    1    1    0    3    1    1 ]

      Overlap, kinetic, potential, dipole, and quadrupole integrals
        stored in file 35.

      Computing two-electron integrals...done
      Computed 292 non-zero two-electron integrals.
        Stored in file 33.

	Batch   1 pq = [       0,      16] index = [             0,136]
  ==> DiskJK: Disk-Based J/K Matrices <==

    J tasked:                  Yes
    K tasked:                  Yes
    wK tasked:                  No
    Memory (MB):               183
    Schwarz Cutoff:          0E+00

   @RHF iter   6:  -107.49356712741735   -1.70973e-04   1.02714e-05 DIIS
   @RHF iter   7:  -107.49356712892583   -1.50848e-09   2.32664e-06 DIIS
   @RHF iter   8:  -107.49356712900618   -8.03482e-11   8.03787e-09 DIIS
   @RHF iter   9:  -107.49356712900621   -2.84217e-14   1.82493e-13 DIIS
   @RHF iter  10:  -107.49356712900618    2.84217e-14   3.55165e-15 DIIS

  ==> Post-Iterations <==

	Orbital Energies (a.u.)
	-----------------------

	Doubly Occupied:                                                      

	   1Ag   -15.520652     1B1u  -15.518568     2Ag    -1.449979  
	   2B1u   -0.721487     1B2u   -0.578284     1B3u   -0.578284  
	   3Ag    -0.541389  

	Virtual:                                                              

	   1B3g    0.284696     1B2g    0.284696     3B1u    1.141210  

	Final Occupation by Irrep:
	         Ag   B1g   B2g   B3g    Au   B1u   B2u   B3u 
	DOCC [     3,    0,    0,    0,    0,    2,    1,    1 ]

  Energy converged.

  @RHF Final Energy:  -107.49356712900618

   => Energetics <=

    Nuclear Repulsion Energy =             23.7864077669902905
    One-Electron Energy =                -192.7426649942856329
    Two-Electron Energy =                  61.4626900982891513
    DFT Exchange-Correlation Energy =       0.0000000000000000
    Empirical Dispersion Energy =           0.0000000000000000
    Total Energy =                       -107.4935671290061805



Properties will be evaluated at   0.000000,   0.000000,   0.000000 Bohr
  ==> Properties <==


Properties computed using the SCF density density matrix
  Nuclear Dipole Moment: (a.u.)
     X:     0.0000      Y:     0.0000      Z:     0.0000

  Electronic Dipole Moment: (a.u.)
     X:     0.0000      Y:     0.0000      Z:     0.0000

  Dipole Moment: (a.u.)
     X:     0.0000      Y:     0.0000      Z:     0.0000     Total:     0.0000

  Dipole Moment: (Debye)
     X:     0.0000      Y:     0.0000      Z:     0.0000     Total:     0.0000


  Saving occupied orbitals to File 180.

*** tstop() called on seb-precision at Thu Nov  6 12:16:51 2014
Module time:
	user time   =       0.07 seconds =       0.00 minutes
	system time =       0.00 seconds =       0.00 minutes
	total time  =          0 seconds =       0.00 minutes
Total time:
	user time   =       0.07 seconds =       0.00 minutes
	system time =       0.00 seconds =       0.00 minutes
	total time  =          0 seconds =       0.00 minutes
Reading options from the MOINTEGRALS block
Calling plugin mointegrals.so.
	Presorting SO-basis two-electron integrals.
	Sorting File: SO Ints (nn|nn) nbuckets = 1
	Transforming the one-electron integrals and constructing Fock matrices
	Starting first half-transformation.
	Sorting half-transformed integrals.
	First half integral transformation complete.
	Starting second half-transformation.
	Two-electron integral transformation complete.
  ## MO OEI (Symmetry 0) ##
  Irrep: 1 Size: 3 x 3

                 1            2            3

    1  -27.5796851   -0.4644714   -0.2640001
    2   -0.4644714   -9.5762281    0.7118001
    3   -0.2640001    0.7118001   -7.7913890



  Irrep: 2 Size: 0 x 0

	(empty)

  Irrep: 3 Size: 1 x 1

                 1

    1   -7.8490579



  Irrep: 4 Size: 1 x 1

                 1

    1   -7.8490579



  Irrep: 5 Size: 0 x 0

	(empty)

  Irrep: 6 Size: 3 x 3

                 1            2            3

    1  -27.5789161   -0.4988411   -0.2319794
    2   -0.4988411   -7.6861911   -0.4185824
    3   -0.2319794   -0.4185824   -8.3169940



  Irrep: 7 Size: 1 x 1

                 1

    1   -8.0794615



  Irrep: 8 Size: 1 x 1

                 1

    1   -8.0794615



****  Molecular Integrals For CheMPS Start Here 
Symmetry Label = d2h 
Nirreps = 8 
Nuclear Repulsion Energy = 23.786407766990290468811508617363870143890380859375 
Number Of Molecular Orbitals = 10 
Irreps Of Molecular Orbitals = 
0 0 0 2 3 5 5 5 6 7 
DOCC =  3  0  0  0  0  2  1  1 
SOCC =  0  0  0  0  0  0  0  0 
****  MO OEI 
0 0 -27.579685141631582467880434705875813961029052734375 
0 1 -0.464471379968307007679584330617217347025871276855 
0 2 -0.264000079869105785945748721132986247539520263672 
1 0 -0.464471379968307007679584330617217347025871276855 
1 1 -9.576228144252397100899543147534132003784179687500 
1 2 0.711800087210684218064216111088171601295471191406 
2 0 -0.264000079869105785945748721132986247539520263672 
2 1 0.711800087210684218064216111088171601295471191406 
2 2 -7.791389009238320007000311306910589337348937988281 
3 3 -7.849057930702690200064353120978921651840209960938 
4 4 -7.849057930702690200064353120978921651840209960938 
5 5 -27.578916136183931229197696666233241558074951171875 
5 6 -0.498841120222816014617706059652846306562423706055 
5 7 -0.231979405883214084838073176797479391098022460938 
6 5 -0.498841120222816014617706059652846306562423706055 
6 6 -7.686191107984308601430711860302835702896118164062 
6 7 -0.418582366254849347342315013520419597625732421875 
7 5 -0.231979405883214084838073176797479391098022460938 
7 6 -0.418582366254849347342315013520419597625732421875 
7 7 -8.316994003038214344769585295580327510833740234375 
8 8 -8.079461478926148743084922898560762405395507812500 
9 9 -8.079461478926148743084922898560762405395507812500 
****  MO TEI 
0 0 0 0 2.308923310677945206492722718394361436367034912109 
0 0 0 1 0.191980095296510361313480075295956339687108993530 
0 0 0 2 0.083577746481698578229213580925716087222099304199 
0 0 1 0 0.191980095296510361313480075295956339687108993530 
0 0 1 1 0.790929486923103719497873953514499589800834655762 
0 0 1 2 -0.066494573944735457793342447985196486115455627441 
0 0 2 0 0.083577746481698578229213580925716087222099304199 
0 0 2 1 -0.066494573944735457793342447985196486115455627441 
0 0 2 2 0.686607353768158956697220673959236592054367065430 
0 0 3 3 0.729522387819733997282867221656488254666328430176 
0 0 4 4 0.729522387819733997282867221656488254666328430176 
0 0 5 5 2.308489726385367202254883522982709109783172607422 
0 0 5 6 0.191138613650795041731811352292424999177455902100 
0 0 5 7 0.131723950244820864341477317793760448694229125977 
0 0 6 5 0.191138613650795041731811352292424999177455902100 
0 0 6 6 0.667948844300416677555176647729240357875823974609 
0 0 6 7 0.048441769554837588174223128589801490306854248047 
0 0 7 5 0.131723950244820864341477317793760448694229125977 
0 0 7 6 0.048441769554837588174223128589801490306854248047 
0 0 7 7 0.899110095641264539523263010778464376926422119141 
0 0 8 8 0.689630108590926327316594779404113069176673889160 
0 0 9 9 0.689630108590926327316594779404113069176673889160 
0 1 0 0 0.191980095296510472335782537811610382050275802612 
0 1 0 1 0.031218152748609180602290535944121074862778186798 
0 1 0 2 0.006495143728388885762115023680962622165679931641 
0 1 1 0 0.031218152748609180602290535944121074862778186798 
0 1 1 1 -0.002195258866531804489014012560232913529034703970 
0 1 1 2 0.007283976877255919982201426421397627564147114754 
0 1 2 0 0.006495143728388885762115023680962622165679931641 
0 1 2 1 0.007283976877255919982201426421397627564147114754 
0 1 2 2 0.009050849299891373586635090475738252280279994011 
0 1 3 3 0.005982235946037349830217699775403161766007542610 
0 1 4 4 0.005982235946037349830217699775403161766007542610 
0 1 5 5 0.191856484107528174609669235906039830297231674194 
0 1 5 6 0.025791334038381023147090687075433379504829645157 
0 1 5 7 0.028315053229011254154467991384080960415303707123 
0 1 6 5 0.025791334038381023147090687075433379504829645157 
0 1 6 6 0.012656749172872221870234099583285569678992033005 
0 1 6 7 -0.002939401413350105352062513475175364874303340912 
0 1 7 5 0.028315053229011254154467991384080960415303707123 
0 1 7 6 -0.002939401413350105352062513475175364874303340912 
0 1 7 7 0.005554966065293913228539945947659361991100013256 
0 1 8 8 0.001429621419228028654166418043303110607666894794 
0 1 9 9 0.001429621419228028654166418043303110607666894794 
0 2 0 0 0.083577746481698592107001388740172842517495155334 
0 2 0 1 0.006495143728388871884327215866505866870284080505 
0 2 0 2 0.014294890141232752256428284454159438610076904297 
0 2 1 0 0.006495143728388871884327215866505866870284080505 
0 2 1 1 0.025792744281267387246314726212403911631554365158 
0 2 1 2 -0.012363911002924605000985458502782421419396996498 
0 2 2 0 0.014294890141232752256428284454159438610076904297 
0 2 2 1 -0.012363911002924605000985458502782421419396996498 
0 2 2 2 -0.002705224937392000823799254050072704558260738850 
0 2 3 3 0.005365627671450886627957377328357324586249887943 
0 2 4 4 0.005365627671450886627957377328357324586249887943 
0 2 5 5 0.083638476395620595105206973585154628381133079529 
0 2 5 6 0.015222950058359292074827706642281555105000734329 
0 2 5 7 -0.006197561437601062026003795324413658818230032921 
0 2 6 5 0.015222950058359292074827706642281555105000734329 
0 2 6 6 -0.004270448055142535975781115098470763769000768661 
0 2 6 7 0.012156864146701180581788825918465590802952647209 
0 2 7 5 -0.006197561437601062026003795324413658818230032921 
0 2 7 6 0.012156864146701180581788825918465590802952647209 
0 2 7 7 0.022937133907119797854301523898357118014246225357 
0 2 8 8 0.009040979882030666589520784270916919922456145287 
0 2 9 9 0.009040979882030666589520784270916919922456145287 
1 0 0 0 0.191980095296510472335782537811610382050275802612 
1 0 0 1 0.031218152748609180602290535944121074862778186798 
1 0 0 2 0.006495143728388885762115023680962622165679931641 
1 0 1 0 0.031218152748609180602290535944121074862778186798 
1 0 1 1 -0.002195258866531804489014012560232913529034703970 
1 0 1 2 0.007283976877255919982201426421397627564147114754 
1 0 2 0 0.006495143728388885762115023680962622165679931641 
1 0 2 1 0.007283976877255919982201426421397627564147114754 
1 0 2 2 0.009050849299891373586635090475738252280279994011 
1 0 3 3 0.005982235946037349830217699775403161766007542610 
1 0 4 4 0.005982235946037349830217699775403161766007542610 
1 0 5 5 0.191856484107528174609669235906039830297231674194 
1 0 5 6 0.025791334038381023147090687075433379504829645157 
1 0 5 7 0.028315053229011254154467991384080960415303707123 
1 0 6 5 0.025791334038381023147090687075433379504829645157 
1 0 6 6 0.012656749172872221870234099583285569678992033005 
1 0 6 7 -0.002939401413350105352062513475175364874303340912 
1 0 7 5 0.028315053229011254154467991384080960415303707123 
1 0 7 6 -0.002939401413350105352062513475175364874303340912 
1 0 7 7 0.005554966065293913228539945947659361991100013256 
1 0 8 8 0.001429621419228028654166418043303110607666894794 
1 0 9 9 0.001429621419228028654166418043303110607666894794 
1 1 0 0 0.790929486923103719497873953514499589800834655762 
1 1 0 1 -0.002195258866531796249077501670399215072393417358 
1 1 0 2 0.025792744281267418471337293794931611046195030212 
1 1 1 0 -0.002195258866531796249077501670399215072393417358 
1 1 1 1 0.751117280487513805375954234477831050753593444824 
1 1 1 2 -0.108899322654406049970532421866664662957191467285 
1 1 2 0 0.025792744281267418471337293794931611046195030212 
1 1 2 1 -0.108899322654406049970532421866664662957191467285 
1 1 2 2 0.543425858162777331017423421144485473632812500000 
1 1 3 3 0.597892269311128932152143988787429407238960266113 
1 1 4 4 0.597892269311128932152143988787429407238960266113 
1 1 5 5 0.791009396572249334766979700361844152212142944336 
1 1 5 6 0.018533613328760280281048977712998748756945133209 
1 1 5 7 -0.022382583079143578141945170045801205560564994812 
1 1 6 5 0.018533613328760280281048977712998748756945133209 
1 1 6 6 0.512902577466090470181825367035344243049621582031 
1 1 6 7 0.073086666597249161370086767419707030057907104492 
1 1 7 5 -0.022382583079143578141945170045801205560564994812 
1 1 7 6 0.073086666597249161370086767419707030057907104492 
1 1 7 7 0.726679283698179245831738626293372362852096557617 
1 1 8 8 0.619561170673959438204292382579296827316284179688 
1 1 9 9 0.619561170673959438204292382579296827316284179688 
1 2 0 0 -0.066494573944735221870949715139431646093726158142 
1 2 0 1 0.007283976877255972891267443714014007127843797207 
1 2 0 2 -0.012363911002924596327368078618746949359774589539 
1 2 1 0 0.007283976877255972891267443714014007127843797207 
1 2 1 1 -0.108899322654406008337168998423294397071003913879 
1 2 1 2 0.051034598000517697458100485619070241227746009827 
1 2 2 0 -0.012363911002924596327368078618746949359774589539 
1 2 2 1 0.051034598000517697458100485619070241227746009827 
1 2 2 2 -0.016440063102493959051875194177227967884391546249 
1 2 3 3 -0.029332420930140039316835753879786352626979351044 
1 2 4 4 -0.029332420930140039316835753879786352626979351044 
1 2 5 5 -0.066545602758514163510561445491475751623511314392 
1 2 5 6 -0.004850884818025618348824590242429621866904199123 
1 2 5 7 0.016737483720592655905834433838208497036248445511 
1 2 6 5 -0.004850884818025618348824590242429621866904199123 
1 2 6 6 0.000794795510145552587533135380226667621172964573 
1 2 6 7 -0.028977965642395499268335612441660487093031406403 
1 2 7 5 0.016737483720592655905834433838208497036248445511 
1 2 7 6 -0.028977965642395499268335612441660487093031406403 
1 2 7 7 -0.087367427491038124331979020098515320569276809692 
1 2 8 8 -0.047076849847814329630413254790255450643599033356 
1 2 9 9 -0.047076849847814329630413254790255450643599033356 
2 0 0 0 0.083577746481698592107001388740172842517495155334 
2 0 0 1 0.006495143728388871884327215866505866870284080505 
2 0 0 2 0.014294890141232752256428284454159438610076904297 
2 0 1 0 0.006495143728388871884327215866505866870284080505 
2 0 1 1 0.025792744281267387246314726212403911631554365158 
2 0 1 2 -0.012363911002924605000985458502782421419396996498 
2 0 2 0 0.014294890141232752256428284454159438610076904297 
2 0 2 1 -0.012363911002924605000985458502782421419396996498 
2 0 2 2 -0.002705224937392000823799254050072704558260738850 
2 0 3 3 0.005365627671450886627957377328357324586249887943 
2 0 4 4 0.005365627671450886627957377328357324586249887943 
2 0 5 5 0.083638476395620595105206973585154628381133079529 
2 0 5 6 0.015222950058359292074827706642281555105000734329 
2 0 5 7 -0.006197561437601062026003795324413658818230032921 
2 0 6 5 0.015222950058359292074827706642281555105000734329 
2 0 6 6 -0.004270448055142535975781115098470763769000768661 
2 0 6 7 0.012156864146701180581788825918465590802952647209 
2 0 7 5 -0.006197561437601062026003795324413658818230032921 
2 0 7 6 0.012156864146701180581788825918465590802952647209 
2 0 7 7 0.022937133907119797854301523898357118014246225357 
2 0 8 8 0.009040979882030666589520784270916919922456145287 
2 0 9 9 0.009040979882030666589520784270916919922456145287 
2 1 0 0 -0.066494573944735221870949715139431646093726158142 
2 1 0 1 0.007283976877255972891267443714014007127843797207 
2 1 0 2 -0.012363911002924596327368078618746949359774589539 
2 1 1 0 0.007283976877255972891267443714014007127843797207 
2 1 1 1 -0.108899322654406008337168998423294397071003913879 
2 1 1 2 0.051034598000517697458100485619070241227746009827 
2 1 2 0 -0.012363911002924596327368078618746949359774589539 
2 1 2 1 0.051034598000517697458100485619070241227746009827 
2 1 2 2 -0.016440063102493959051875194177227967884391546249 
2 1 3 3 -0.029332420930140039316835753879786352626979351044 
2 1 4 4 -0.029332420930140039316835753879786352626979351044 
2 1 5 5 -0.066545602758514163510561445491475751623511314392 
2 1 5 6 -0.004850884818025618348824590242429621866904199123 
2 1 5 7 0.016737483720592655905834433838208497036248445511 
2 1 6 5 -0.004850884818025618348824590242429621866904199123 
2 1 6 6 0.000794795510145552587533135380226667621172964573 
2 1 6 7 -0.028977965642395499268335612441660487093031406403 
2 1 7 5 0.016737483720592655905834433838208497036248445511 
2 1 7 6 -0.028977965642395499268335612441660487093031406403 
2 1 7 7 -0.087367427491038124331979020098515320569276809692 
2 1 8 8 -0.047076849847814329630413254790255450643599033356 
2 1 9 9 -0.047076849847814329630413254790255450643599033356 
2 2 0 0 0.686607353768158845674918211443582549691200256348 
2 2 0 1 0.009050849299891347565782950823631836101412773132 
2 2 0 2 -0.002705224937391968731414948479141457937657833099 
2 2 1 0 0.009050849299891347565782950823631836101412773132 
2 2 1 1 0.543425858162777219995120958628831431269645690918 
2 2 1 2 -0.016440063102494073543624608646496199071407318115 
2 2 2 0 -0.002705224937391968731414948479141457937657833099 
2 2 2 1 -0.016440063102494073543624608646496199071407318115 
2 2 2 2 0.585860518965996113216476715024327859282493591309 
2 2 3 3 0.541651313110927401517358248383970931172370910645 
2 2 4 4 0.541651313110927401517358248383970931172370910645 
2 2 5 5 0.686547662569804706400589111581211909651756286621 
2 2 5 6 0.003692099167901460865515161913208430632948875427 
2 2 5 7 0.012202500966156992756594945603865198791027069092 
2 2 6 5 0.003692099167901460865515161913208430632948875427 
2 2 6 6 0.558260344594118218530809372168732807040214538574 
2 2 6 7 -0.027861460509114310823974847153294831514358520508 
2 2 7 5 0.012202500966156992756594945603865198791027069092 
2 2 7 6 -0.027861460509114310823974847153294831514358520508 
2 2 7 7 0.595062916911950345877357904100790619850158691406 
2 2 8 8 0.518518287163167168607458279439015313982963562012 
2 2 9 9 0.518518287163167168607458279439015313982963562012 
3 3 0 0 0.729522387819733997282867221656488254666328430176 
3 3 0 1 0.005982235946037358503835079659438633825629949570 
3 3 0 2 0.005365627671450885760595639339953777380287647247 
3 3 1 0 0.005982235946037358503835079659438633825629949570 
3 3 1 1 0.597892269311128821129841526271775364875793457031 
3 3 1 2 -0.029332420930140101766880889044841751456260681152 
3 3 2 0 0.005365627671450885760595639339953777380287647247 
3 3 2 1 -0.029332420930140101766880889044841751456260681152 
3 3 2 2 0.541651313110927401517358248383970931172370910645 
3 3 3 3 0.606146961460226285645092048071091994643211364746 
3 3 4 4 0.555883694433602970619290317699778825044631958008 
3 3 5 5 0.729553442020286491143110652046743780374526977539 
3 3 5 6 0.007763986440609448730354458234614867251366376877 
3 3 5 7 0.000366350599034545587606714889261638745665550232 
3 3 6 5 0.007763986440609448730354458234614867251366376877 
3 3 6 6 0.536862208925723338737157064315397292375564575195 
3 3 6 7 0.028169731324220959045590007008286193013191223145 
3 3 7 5 0.000366350599034545587606714889261638745665550232 
3 3 7 6 0.028169731324220959045590007008286193013191223145 
3 3 7 7 0.623002162440390971909209838486276566982269287109 
3 3 8 8 0.542503280023916345520262893842300400137901306152 
3 3 9 9 0.588355950399134797201838864566525444388389587402 
4 4 0 0 0.729522387819733997282867221656488254666328430176 
4 4 0 1 0.005982235946037358503835079659438633825629949570 
4 4 0 2 0.005365627671450885760595639339953777380287647247 
4 4 1 0 0.005982235946037358503835079659438633825629949570 
4 4 1 1 0.597892269311128821129841526271775364875793457031 
4 4 1 2 -0.029332420930140101766880889044841751456260681152 
4 4 2 0 0.005365627671450885760595639339953777380287647247 
4 4 2 1 -0.029332420930140101766880889044841751456260681152 
4 4 2 2 0.541651313110927401517358248383970931172370910645 
4 4 3 3 0.555883694433602970619290317699778825044631958008 
4 4 4 4 0.606146961460226285645092048071091994643211364746 
4 4 5 5 0.729553442020286491143110652046743780374526977539 
4 4 5 6 0.007763986440609448730354458234614867251366376877 
4 4 5 7 0.000366350599034545587606714889261638745665550232 
4 4 6 5 0.007763986440609448730354458234614867251366376877 
4 4 6 6 0.536862208925723338737157064315397292375564575195 
4 4 6 7 0.028169731324220959045590007008286193013191223145 
4 4 7 5 0.000366350599034545587606714889261638745665550232 
4 4 7 6 0.028169731324220959045590007008286193013191223145 
4 4 7 7 0.623002162440390971909209838486276566982269287109 
4 4 8 8 0.588355950399134797201838864566525444388389587402 
4 4 9 9 0.542503280023916345520262893842300400137901306152 
5 5 0 0 2.308489726385365869987253972794860601425170898438 
5 5 0 1 0.191856484107528119098518004648212809115648269653 
5 5 0 2 0.083638476395620608982994781399611383676528930664 
5 5 1 0 0.191856484107528119098518004648212809115648269653 
5 5 1 1 0.791009396572249334766979700361844152212142944336 
5 5 1 2 -0.066545602758514288410651715821586549282073974609 
5 5 2 0 0.083638476395620608982994781399611383676528930664 
5 5 2 1 -0.066545602758514288410651715821586549282073974609 
5 5 2 2 0.686547662569804706400589111581211909651756286621 
5 5 3 3 0.729553442020286491143110652046743780374526977539 
5 5 4 4 0.729553442020286491143110652046743780374526977539 
5 5 5 5 2.308057462714169449924384025507606565952301025391 
5 5 5 6 0.191101199952286970873416294125490821897983551025 
5 5 5 7 0.131520927954834165873876372643280774354934692383 
5 5 6 5 0.191101199952286970873416294125490821897983551025 
5 5 6 6 0.667891173290559470032690114749129861593246459961 
5 5 6 7 0.048514988427535321591221872949972748756408691406 
5 5 7 5 0.131520927954834165873876372643280774354934692383 
5 5 7 6 0.048514988427535321591221872949972748756408691406 
5 5 7 7 0.899181613068896434803889405884547159075736999512 
5 5 8 8 0.689673257506952963602486761374166235327720642090 
5 5 9 9 0.689673257506952963602486761374166235327720642090 
5 6 0 0 0.191138613650794847442782042890030425041913986206 
5 6 0 1 0.025791334038381009269302879260976624209433794022 
5 6 0 2 0.015222950058359283401210326758246083045378327370 
5 6 1 0 0.025791334038381009269302879260976624209433794022 
5 6 1 1 0.018533613328760304567177641388298070523887872696 
5 6 1 2 -0.004850884818025624420356756161254452308639883995 
5 6 2 0 0.015222950058359283401210326758246083045378327370 
5 6 2 1 -0.004850884818025624420356756161254452308639883995 
5 6 2 2 0.003692099167901491223175991507332582841627299786 
5 6 3 3 0.007763986440609434852566650420158111955970525742 
5 6 4 4 0.007763986440609434852566650420158111955970525742 
5 6 5 5 0.191101199952287276184748066043539438396692276001 
5 6 5 6 0.028820824005946717172310655996625428088009357452 
5 6 5 7 0.014232729528760914780582957916976738488301634789 
5 6 6 5 0.028820824005946717172310655996625428088009357452 
5 6 6 6 0.004820826535363751871865467535371863050386309624 
5 6 6 7 0.007450757361496168629244607473083306103944778442 
5 6 7 5 0.014232729528760914780582957916976738488301634789 
5 6 7 6 0.007450757361496168629244607473083306103944778442 
5 6 7 7 0.021097984775990702432935108845413196831941604614 
5 6 8 8 0.007786811846755940791364736242030630819499492645 
5 6 9 9 0.007786811846755940791364736242030630819499492645 
5 7 0 0 0.131723950244820919852628549051587469875812530518 
5 7 0 1 0.028315053229011254154467991384080960415303707123 
5 7 0 2 -0.006197561437601058556556843370799469994381070137 
5 7 1 0 0.028315053229011254154467991384080960415303707123 
5 7 1 1 -0.022382583079143553855816506370501883793622255325 
5 7 1 2 0.016737483720592631619705770162909175269305706024 
5 7 2 0 -0.006197561437601058556556843370799469994381070137 
5 7 2 1 0.016737483720592631619705770162909175269305706024 
5 7 2 2 0.012202500966157013573276657325550331734120845795 
5 7 3 3 0.000366350599034564019043647142837016872363165021 
5 7 4 4 0.000366350599034564019043647142837016872363165021 
5 7 5 5 0.131520927954834360162905682045675348490476608276 
5 7 5 6 0.014232729528760925188923813777819304959848523140 
5 7 5 7 0.037380889775198766766806102168629877269268035889 
5 7 6 5 0.014232729528760925188923813777819304959848523140 
5 7 6 6 0.016337906152575472351617946742408093996345996857 
5 7 6 7 -0.013700317059542929665205690525908721610903739929 
5 7 7 5 0.037380889775198766766806102168629877269268035889 
5 7 7 6 -0.013700317059542929665205690525908721610903739929 
5 7 7 7 -0.013412196984676275773873399543845152948051691055 
5 7 8 8 -0.006555628000819037522195475986563906189985573292 
5 7 9 9 -0.006555628000819037522195475986563906189985573292 
6 5 0 0 0.191138613650794847442782042890030425041913986206 
6 5 0 1 0.025791334038381009269302879260976624209433794022 
6 5 0 2 0.015222950058359283401210326758246083045378327370 
6 5 1 0 0.025791334038381009269302879260976624209433794022 
6 5 1 1 0.018533613328760304567177641388298070523887872696 
6 5 1 2 -0.004850884818025624420356756161254452308639883995 
6 5 2 0 0.015222950058359283401210326758246083045378327370 
6 5 2 1 -0.004850884818025624420356756161254452308639883995 
6 5 2 2 0.003692099167901491223175991507332582841627299786 
6 5 3 3 0.007763986440609434852566650420158111955970525742 
6 5 4 4 0.007763986440609434852566650420158111955970525742 
6 5 5 5 0.191101199952287276184748066043539438396692276001 
6 5 5 6 0.028820824005946717172310655996625428088009357452 
6 5 5 7 0.014232729528760914780582957916976738488301634789 
6 5 6 5 0.028820824005946717172310655996625428088009357452 
6 5 6 6 0.004820826535363751871865467535371863050386309624 
6 5 6 7 0.007450757361496168629244607473083306103944778442 
6 5 7 5 0.014232729528760914780582957916976738488301634789 
6 5 7 6 0.007450757361496168629244607473083306103944778442 
6 5 7 7 0.021097984775990702432935108845413196831941604614 
6 5 8 8 0.007786811846755940791364736242030630819499492645 
6 5 9 9 0.007786811846755940791364736242030630819499492645 
6 6 0 0 0.667948844300416566532874185213586315512657165527 
6 6 0 1 0.012656749172872204522999339815214625559747219086 
6 6 0 2 -0.004270448055142539445228067052084952592849731445 
6 6 1 0 0.012656749172872204522999339815214625559747219086 
6 6 1 1 0.512902577466090692226430292066652327775955200195 
6 6 1 2 0.000794795510145551720171397391823120415210723877 
6 6 2 0 -0.004270448055142539445228067052084952592849731445 
6 6 2 1 0.000794795510145551720171397391823120415210723877 
6 6 2 2 0.558260344594118107508506909653078764677047729492 
6 6 3 3 0.536862208925723227714854601799743250012397766113 
6 6 4 4 0.536862208925723227714854601799743250012397766113 
6 6 5 5 0.667891173290559470032690114749129861593246459961 
6 6 5 6 0.004820826535363746667695039604950579814612865448 
6 6 5 7 0.016337906152575493168299658464093226939439773560 
6 6 6 5 0.004820826535363746667695039604950579814612865448 
6 6 6 6 0.546496481411559154039991881290916353464126586914 
6 6 6 7 -0.020181284061716264766062067792518064379692077637 
6 6 7 5 0.016337906152575493168299658464093226939439773560 
6 6 7 6 -0.020181284061716264766062067792518064379692077637 
6 6 7 7 0.560605004930324168910260596021544188261032104492 
6 6 8 8 0.510669375212983278622402849578065797686576843262 
6 6 9 9 0.510669375212983278622402849578065797686576843262 
6 7 0 0 0.048441769554837858791085380971708218567073345184 
6 7 0 1 -0.002939401413350072392316469915840571047738194466 
6 7 0 2 0.012156864146701187520682729825693968450650572777 
6 7 1 0 -0.002939401413350072392316469915840571047738194466 
6 7 1 1 0.073086666597249258514601422120904317125678062439 
6 7 1 2 -0.028977965642395492329441708534432109445333480835 
6 7 2 0 0.012156864146701187520682729825693968450650572777 
6 7 2 1 -0.028977965642395492329441708534432109445333480835 
6 7 2 2 -0.027861460509114432254618165529791440349072217941 
6 7 3 3 0.028169731324221059659551613663097668904811143875 
6 7 4 4 0.028169731324221059659551613663097668904811143875 
6 7 5 5 0.048514988427535425674630431558398413471877574921 
6 7 5 6 0.007450757361496192915373271148382627870887517929 
6 7 5 7 -0.013700317059542955686057830178015137789770960808 
6 7 6 5 0.007450757361496192915373271148382627870887517929 
6 7 6 6 -0.020181284061716396605046242029857239685952663422 
6 7 6 7 0.047629616718183373502704114343941910192370414734 
6 7 7 5 -0.013700317059542955686057830178015137789770960808 
6 7 7 6 0.047629616718183373502704114343941910192370414734 
6 7 7 7 0.044838995216279819988614008252625353634357452393 
6 7 8 8 0.041499353391964803605684863896385650150477886200 
6 7 9 9 0.041499353391964803605684863896385650150477886200 
7 5 0 0 0.131723950244820919852628549051587469875812530518 
7 5 0 1 0.028315053229011254154467991384080960415303707123 
7 5 0 2 -0.006197561437601058556556843370799469994381070137 
7 5 1 0 0.028315053229011254154467991384080960415303707123 
7 5 1 1 -0.022382583079143553855816506370501883793622255325 
7 5 1 2 0.016737483720592631619705770162909175269305706024 
7 5 2 0 -0.006197561437601058556556843370799469994381070137 
7 5 2 1 0.016737483720592631619705770162909175269305706024 
7 5 2 2 0.012202500966157013573276657325550331734120845795 
7 5 3 3 0.000366350599034564019043647142837016872363165021 
7 5 4 4 0.000366350599034564019043647142837016872363165021 
7 5 5 5 0.131520927954834360162905682045675348490476608276 
7 5 5 6 0.014232729528760925188923813777819304959848523140 
7 5 5 7 0.037380889775198766766806102168629877269268035889 
7 5 6 5 0.014232729528760925188923813777819304959848523140 
7 5 6 6 0.016337906152575472351617946742408093996345996857 
7 5 6 7 -0.013700317059542929665205690525908721610903739929 
7 5 7 5 0.037380889775198766766806102168629877269268035889 
7 5 7 6 -0.013700317059542929665205690525908721610903739929 
7 5 7 7 -0.013412196984676275773873399543845152948051691055 
7 5 8 8 -0.006555628000819037522195475986563906189985573292 
7 5 9 9 -0.006555628000819037522195475986563906189985573292 
7 6 0 0 0.048441769554837858791085380971708218567073345184 
7 6 0 1 -0.002939401413350072392316469915840571047738194466 
7 6 0 2 0.012156864146701187520682729825693968450650572777 
7 6 1 0 -0.002939401413350072392316469915840571047738194466 
7 6 1 1 0.073086666597249258514601422120904317125678062439 
7 6 1 2 -0.028977965642395492329441708534432109445333480835 
7 6 2 0 0.012156864146701187520682729825693968450650572777 
7 6 2 1 -0.028977965642395492329441708534432109445333480835 
7 6 2 2 -0.027861460509114432254618165529791440349072217941 
7 6 3 3 0.028169731324221059659551613663097668904811143875 
7 6 4 4 0.028169731324221059659551613663097668904811143875 
7 6 5 5 0.048514988427535425674630431558398413471877574921 
7 6 5 6 0.007450757361496192915373271148382627870887517929 
7 6 5 7 -0.013700317059542955686057830178015137789770960808 
7 6 6 5 0.007450757361496192915373271148382627870887517929 
7 6 6 6 -0.020181284061716396605046242029857239685952663422 
7 6 6 7 0.047629616718183373502704114343941910192370414734 
7 6 7 5 -0.013700317059542955686057830178015137789770960808 
7 6 7 6 0.047629616718183373502704114343941910192370414734 
7 6 7 7 0.044838995216279819988614008252625353634357452393 
7 6 8 8 0.041499353391964803605684863896385650150477886200 
7 6 9 9 0.041499353391964803605684863896385650150477886200 
7 7 0 0 0.899110095641264539523263010778464376926422119141 
7 7 0 1 0.005554966065293903687560828075220342725515365601 
7 7 0 2 0.022937133907119836018217995388113195076584815979 
7 7 1 0 0.005554966065293903687560828075220342725515365601 
7 7 1 1 0.726679283698179245831738626293372362852096557617 
7 7 1 2 -0.087367427491038152087554635727428831160068511963 
7 7 2 0 0.022937133907119836018217995388113195076584815979 
7 7 2 1 -0.087367427491038152087554635727428831160068511963 
7 7 2 2 0.595062916911950345877357904100790619850158691406 
7 7 3 3 0.623002162440390416797697525908006355166435241699 
7 7 4 4 0.623002162440390416797697525908006355166435241699 
7 7 5 5 0.899181613068896989915401718462817370891571044922 
7 7 5 6 0.021097984775990685085700349077342252712696790695 
7 7 5 7 -0.013412196984676327815577678848057985305786132812 
7 7 6 5 0.021097984775990685085700349077342252712696790695 
7 7 6 6 0.560605004930324057887958133505890145897865295410 
7 7 6 7 0.044838995216278987321345539385220035910606384277 
7 7 7 5 -0.013412196984676327815577678848057985305786132812 
7 7 7 6 0.044838995216278987321345539385220035910606384277 
7 7 7 7 0.761602917366724696535129623953253030776977539062 
7 7 8 8 0.621661965323320075960111807944485917687416076660 
7 7 9 9 0.621661965323320075960111807944485917687416076660 
8 8 0 0 0.689630108590926438338897241919767111539840698242 
8 8 0 1 0.001429621419228043616156398343264299910515546799 
8 8 0 2 0.009040979882030675263138164154952391982078552246 
8 8 1 0 0.001429621419228043616156398343264299910515546799 
8 8 1 1 0.619561170673959438204292382579296827316284179688 
8 8 1 2 -0.047076849847814405958246197769767604768276214600 
8 8 2 0 0.009040979882030675263138164154952391982078552246 
8 8 2 1 -0.047076849847814405958246197769767604768276214600 
8 8 2 2 0.518518287163167279629760741954669356346130371094 
8 8 3 3 0.542503280023916456542565356357954442501068115234 
8 8 4 4 0.588355950399134908224141327082179486751556396484 
8 8 5 5 0.689673257506952741557881836342858150601387023926 
8 8 5 6 0.007786811846755909566342168659502931404858827591 
8 8 5 7 -0.006555628000818963796447746972262393683195114136 
8 8 6 5 0.007786811846755909566342168659502931404858827591 
8 8 6 6 0.510669375212983167600100387062411755323410034180 
8 8 6 7 0.041499353391964644011125074030132964253425598145 
8 8 7 5 -0.006555628000818963796447746972262393683195114136 
8 8 7 6 0.041499353391964644011125074030132964253425598145 
8 8 7 7 0.621661965323320186982414270460139960050582885742 
8 8 8 8 0.589660791448465504416276417032349854707717895508 
8 8 9 9 0.541426861690216587597035413637058809399604797363 
9 9 0 0 0.689630108590926438338897241919767111539840698242 
9 9 0 1 0.001429621419228043616156398343264299910515546799 
9 9 0 2 0.009040979882030675263138164154952391982078552246 
9 9 1 0 0.001429621419228043616156398343264299910515546799 
9 9 1 1 0.619561170673959438204292382579296827316284179688 
9 9 1 2 -0.047076849847814405958246197769767604768276214600 
9 9 2 0 0.009040979882030675263138164154952391982078552246 
9 9 2 1 -0.047076849847814405958246197769767604768276214600 
9 9 2 2 0.518518287163167279629760741954669356346130371094 
9 9 3 3 0.588355950399134908224141327082179486751556396484 
9 9 4 4 0.542503280023916456542565356357954442501068115234 
9 9 5 5 0.689673257506952741557881836342858150601387023926 
9 9 5 6 0.007786811846755909566342168659502931404858827591 
9 9 5 7 -0.006555628000818963796447746972262393683195114136 
9 9 6 5 0.007786811846755909566342168659502931404858827591 
9 9 6 6 0.510669375212983167600100387062411755323410034180 
9 9 6 7 0.041499353391964644011125074030132964253425598145 
9 9 7 5 -0.006555628000818963796447746972262393683195114136 
9 9 7 6 0.041499353391964644011125074030132964253425598145 
9 9 7 7 0.621661965323320186982414270460139960050582885742 
9 9 8 8 0.541426861690216587597035413637058809399604797363 
9 9 9 9 0.589660791448465504416276417032349854707717895508 
3 4 3 4 0.025131633513311605471196585881443752441555261612 
3 4 4 3 0.025131633513311605471196585881443752441555261612 
3 4 8 9 0.022926335187609191146318465825970633886754512787 
3 4 9 8 0.022926335187609191146318465825970633886754512787 
4 3 3 4 0.025131633513311605471196585881443752441555261612 
4 3 4 3 0.025131633513311605471196585881443752441555261612 
4 3 8 9 0.022926335187609191146318465825970633886754512787 
4 3 9 8 0.022926335187609191146318465825970633886754512787 
8 9 3 4 0.022926335187609187676871513872356445062905550003 
8 9 4 3 0.022926335187609187676871513872356445062905550003 
8 9 8 9 0.024116964879124420245704030207889445591717958450 
8 9 9 8 0.024116964879124420245704030207889445591717958450 
9 8 3 4 0.022926335187609187676871513872356445062905550003 
9 8 4 3 0.022926335187609187676871513872356445062905550003 
9 8 8 9 0.024116964879124420245704030207889445591717958450 
9 8 9 8 0.024116964879124420245704030207889445591717958450 
0 3 0 3 0.013873417077977356209883552651263016741722822189 
0 3 1 3 -0.013427698453382864302030341718818817753344774246 
0 3 2 3 -0.008670718505010482218819944932874932419508695602 
0 3 3 0 0.013873417077977356209883552651263016741722822189 
0 3 3 1 -0.013427698453382864302030341718818817753344774246 
0 3 3 2 -0.008670718505010482218819944932874932419508695602 
0 3 5 9 0.011321468711080180311046028407417907146736979485 
0 3 6 9 -0.013434546095330679449375566036906093358993530273 
0 3 7 9 -0.009972047268420956844803271224009222351014614105 
0 3 9 5 0.011321468711080180311046028407417907146736979485 
0 3 9 6 -0.013434546095330679449375566036906093358993530273 
0 3 9 7 -0.009972047268420956844803271224009222351014614105 
1 3 0 3 -0.013427698453382862567306865742011723341420292854 
1 3 1 3 0.043951618158611448217154560325070633552968502045 
1 3 2 3 0.025044956704916722378673199500553891994059085846 
1 3 3 0 -0.013427698453382862567306865742011723341420292854 
1 3 3 1 0.043951618158611448217154560325070633552968502045 
1 3 3 2 0.025044956704916722378673199500553891994059085846 
1 3 5 9 -0.011398273778688029420069760533351654885336756706 
1 3 6 9 0.042566540820053767879560524534099386073648929596 
1 3 7 9 0.034120563513251087051081356094073271378874778748 
1 3 9 5 -0.011398273778688029420069760533351654885336756706 
1 3 9 6 0.042566540820053767879560524534099386073648929596 
1 3 9 7 0.034120563513251087051081356094073271378874778748 
2 3 0 3 -0.008670718505010480484096468956067838007584214211 
2 3 1 3 0.025044956704916715439779295593325514346361160278 
2 3 2 3 0.038449734819455773371377205194221460260450839996 
2 3 3 0 -0.008670718505010480484096468956067838007584214211 
2 3 3 1 0.025044956704916715439779295593325514346361160278 
2 3 3 2 0.038449734819455773371377205194221460260450839996 
2 3 5 9 -0.007054723941690841347573748265631365939043462276 
2 3 6 9 0.039258534308706384552412060884307720698416233063 
2 3 7 9 0.004748924638254266999970454321555735077708959579 
2 3 9 5 -0.007054723941690841347573748265631365939043462276 
2 3 9 6 0.039258534308706384552412060884307720698416233063 
2 3 9 7 0.004748924638254266999970454321555735077708959579 
3 0 0 3 0.013873417077977356209883552651263016741722822189 
3 0 1 3 -0.013427698453382864302030341718818817753344774246 
3 0 2 3 -0.008670718505010482218819944932874932419508695602 
3 0 3 0 0.013873417077977356209883552651263016741722822189 
3 0 3 1 -0.013427698453382864302030341718818817753344774246 
3 0 3 2 -0.008670718505010482218819944932874932419508695602 
3 0 5 9 0.011321468711080180311046028407417907146736979485 
3 0 6 9 -0.013434546095330679449375566036906093358993530273 
3 0 7 9 -0.009972047268420956844803271224009222351014614105 
3 0 9 5 0.011321468711080180311046028407417907146736979485 
3 0 9 6 -0.013434546095330679449375566036906093358993530273 
3 0 9 7 -0.009972047268420956844803271224009222351014614105 
3 1 0 3 -0.013427698453382862567306865742011723341420292854 
3 1 1 3 0.043951618158611448217154560325070633552968502045 
3 1 2 3 0.025044956704916722378673199500553891994059085846 
3 1 3 0 -0.013427698453382862567306865742011723341420292854 
3 1 3 1 0.043951618158611448217154560325070633552968502045 
3 1 3 2 0.025044956704916722378673199500553891994059085846 
3 1 5 9 -0.011398273778688029420069760533351654885336756706 
3 1 6 9 0.042566540820053767879560524534099386073648929596 
3 1 7 9 0.034120563513251087051081356094073271378874778748 
3 1 9 5 -0.011398273778688029420069760533351654885336756706 
3 1 9 6 0.042566540820053767879560524534099386073648929596 
3 1 9 7 0.034120563513251087051081356094073271378874778748 
3 2 0 3 -0.008670718505010480484096468956067838007584214211 
3 2 1 3 0.025044956704916715439779295593325514346361160278 
3 2 2 3 0.038449734819455773371377205194221460260450839996 
3 2 3 0 -0.008670718505010480484096468956067838007584214211 
3 2 3 1 0.025044956704916715439779295593325514346361160278 
3 2 3 2 0.038449734819455773371377205194221460260450839996 
3 2 5 9 -0.007054723941690841347573748265631365939043462276 
3 2 6 9 0.039258534308706384552412060884307720698416233063 
3 2 7 9 0.004748924638254266999970454321555735077708959579 
3 2 9 5 -0.007054723941690841347573748265631365939043462276 
3 2 9 6 0.039258534308706384552412060884307720698416233063 
3 2 9 7 0.004748924638254266999970454321555735077708959579 
5 9 0 3 0.011321468711080180311046028407417907146736979485 
5 9 1 3 -0.011398273778688025950622808579737466061487793922 
5 9 2 3 -0.007054723941690837878126796312017177115194499493 
5 9 3 0 0.011321468711080180311046028407417907146736979485 
5 9 3 1 -0.011398273778688025950622808579737466061487793922 
5 9 3 2 -0.007054723941690837878126796312017177115194499493 
5 9 5 9 0.009251505779880007940274566635707742534577846527 
5 9 6 9 -0.011219951259388285733087364803850505268201231956 
5 9 7 9 -0.008646889851559227263555484910284576471894979477 
5 9 9 5 0.009251505779880007940274566635707742534577846527 
5 9 9 6 -0.011219951259388285733087364803850505268201231956 
5 9 9 7 -0.008646889851559227263555484910284576471894979477 
6 9 0 3 -0.013434546095330681184099042013713187770918011665 
6 9 1 3 0.042566540820053754001772716719642630778253078461 
6 9 2 3 0.039258534308706384552412060884307720698416233063 
6 9 3 0 -0.013434546095330681184099042013713187770918011665 
6 9 3 1 0.042566540820053754001772716719642630778253078461 
6 9 3 2 0.039258534308706384552412060884307720698416233063 
6 9 5 9 -0.011219951259388283998363888827043410856276750565 
6 9 6 9 0.050556612280814372528681133189820684492588043213 
6 9 7 9 0.023924489416842806971397195070494490209966897964 
6 9 9 5 -0.011219951259388283998363888827043410856276750565 
6 9 9 6 0.050556612280814372528681133189820684492588043213 
6 9 9 7 0.023924489416842806971397195070494490209966897964 
7 9 0 3 -0.009972047268420955110079795247202127939090132713 
7 9 1 3 0.034120563513251093989975260001301649026572704315 
7 9 2 3 0.004748924638254260928438288402730904635973274708 
7 9 3 0 -0.009972047268420955110079795247202127939090132713 
7 9 3 1 0.034120563513251093989975260001301649026572704315 
7 9 3 2 0.004748924638254260928438288402730904635973274708 
7 9 5 9 -0.008646889851559230733002436863898765295743942261 
7 9 6 9 0.023924489416842810440844147024108679033815860748 
7 9 7 9 0.035495607111322706461731257832070696167647838593 
7 9 9 5 -0.008646889851559230733002436863898765295743942261 
7 9 9 6 0.023924489416842810440844147024108679033815860748 
7 9 9 7 0.035495607111322706461731257832070696167647838593 
9 5 0 3 0.011321468711080180311046028407417907146736979485 
9 5 1 3 -0.011398273778688025950622808579737466061487793922 
9 5 2 3 -0.007054723941690837878126796312017177115194499493 
9 5 3 0 0.011321468711080180311046028407417907146736979485 
9 5 3 1 -0.011398273778688025950622808579737466061487793922 
9 5 3 2 -0.007054723941690837878126796312017177115194499493 
9 5 5 9 0.009251505779880007940274566635707742534577846527 
9 5 6 9 -0.011219951259388285733087364803850505268201231956 
9 5 7 9 -0.008646889851559227263555484910284576471894979477 
9 5 9 5 0.009251505779880007940274566635707742534577846527 
9 5 9 6 -0.011219951259388285733087364803850505268201231956 
9 5 9 7 -0.008646889851559227263555484910284576471894979477 
9 6 0 3 -0.013434546095330681184099042013713187770918011665 
9 6 1 3 0.042566540820053754001772716719642630778253078461 
9 6 2 3 0.039258534308706384552412060884307720698416233063 
9 6 3 0 -0.013434546095330681184099042013713187770918011665 
9 6 3 1 0.042566540820053754001772716719642630778253078461 
9 6 3 2 0.039258534308706384552412060884307720698416233063 
9 6 5 9 -0.011219951259388283998363888827043410856276750565 
9 6 6 9 0.050556612280814372528681133189820684492588043213 
9 6 7 9 0.023924489416842806971397195070494490209966897964 
9 6 9 5 -0.011219951259388283998363888827043410856276750565 
9 6 9 6 0.050556612280814372528681133189820684492588043213 
9 6 9 7 0.023924489416842806971397195070494490209966897964 
9 7 0 3 -0.009972047268420955110079795247202127939090132713 
9 7 1 3 0.034120563513251093989975260001301649026572704315 
9 7 2 3 0.004748924638254260928438288402730904635973274708 
9 7 3 0 -0.009972047268420955110079795247202127939090132713 
9 7 3 1 0.034120563513251093989975260001301649026572704315 
9 7 3 2 0.004748924638254260928438288402730904635973274708 
9 7 5 9 -0.008646889851559230733002436863898765295743942261 
9 7 6 9 0.023924489416842810440844147024108679033815860748 
9 7 7 9 0.035495607111322706461731257832070696167647838593 
9 7 9 5 -0.008646889851559230733002436863898765295743942261 
9 7 9 6 0.023924489416842810440844147024108679033815860748 
9 7 9 7 0.035495607111322706461731257832070696167647838593 
0 4 0 4 0.013873417077977356209883552651263016741722822189 
0 4 1 4 -0.013427698453382864302030341718818817753344774246 
0 4 2 4 -0.008670718505010482218819944932874932419508695602 
0 4 4 0 0.013873417077977356209883552651263016741722822189 
0 4 4 1 -0.013427698453382864302030341718818817753344774246 
0 4 4 2 -0.008670718505010482218819944932874932419508695602 
0 4 5 8 0.011321468711080180311046028407417907146736979485 
0 4 6 8 -0.013434546095330679449375566036906093358993530273 
0 4 7 8 -0.009972047268420956844803271224009222351014614105 
0 4 8 5 0.011321468711080180311046028407417907146736979485 
0 4 8 6 -0.013434546095330679449375566036906093358993530273 
0 4 8 7 -0.009972047268420956844803271224009222351014614105 
1 4 0 4 -0.013427698453382862567306865742011723341420292854 
1 4 1 4 0.043951618158611448217154560325070633552968502045 
1 4 2 4 0.025044956704916722378673199500553891994059085846 
1 4 4 0 -0.013427698453382862567306865742011723341420292854 
1 4 4 1 0.043951618158611448217154560325070633552968502045 
1 4 4 2 0.025044956704916722378673199500553891994059085846 
1 4 5 8 -0.011398273778688029420069760533351654885336756706 
1 4 6 8 0.042566540820053767879560524534099386073648929596 
1 4 7 8 0.034120563513251087051081356094073271378874778748 
1 4 8 5 -0.011398273778688029420069760533351654885336756706 
1 4 8 6 0.042566540820053767879560524534099386073648929596 
1 4 8 7 0.034120563513251087051081356094073271378874778748 
2 4 0 4 -0.008670718505010480484096468956067838007584214211 
2 4 1 4 0.025044956704916715439779295593325514346361160278 
2 4 2 4 0.038449734819455773371377205194221460260450839996 
2 4 4 0 -0.008670718505010480484096468956067838007584214211 
2 4 4 1 0.025044956704916715439779295593325514346361160278 
2 4 4 2 0.038449734819455773371377205194221460260450839996 
2 4 5 8 -0.007054723941690841347573748265631365939043462276 
2 4 6 8 0.039258534308706384552412060884307720698416233063 
2 4 7 8 0.004748924638254266999970454321555735077708959579 
2 4 8 5 -0.007054723941690841347573748265631365939043462276 
2 4 8 6 0.039258534308706384552412060884307720698416233063 
2 4 8 7 0.004748924638254266999970454321555735077708959579 
4 0 0 4 0.013873417077977356209883552651263016741722822189 
4 0 1 4 -0.013427698453382864302030341718818817753344774246 
4 0 2 4 -0.008670718505010482218819944932874932419508695602 
4 0 4 0 0.013873417077977356209883552651263016741722822189 
4 0 4 1 -0.013427698453382864302030341718818817753344774246 
4 0 4 2 -0.008670718505010482218819944932874932419508695602 
4 0 5 8 0.011321468711080180311046028407417907146736979485 
4 0 6 8 -0.013434546095330679449375566036906093358993530273 
4 0 7 8 -0.009972047268420956844803271224009222351014614105 
4 0 8 5 0.011321468711080180311046028407417907146736979485 
4 0 8 6 -0.013434546095330679449375566036906093358993530273 
4 0 8 7 -0.009972047268420956844803271224009222351014614105 
4 1 0 4 -0.013427698453382862567306865742011723341420292854 
4 1 1 4 0.043951618158611448217154560325070633552968502045 
4 1 2 4 0.025044956704916722378673199500553891994059085846 
4 1 4 0 -0.013427698453382862567306865742011723341420292854 
4 1 4 1 0.043951618158611448217154560325070633552968502045 
4 1 4 2 0.025044956704916722378673199500553891994059085846 
4 1 5 8 -0.011398273778688029420069760533351654885336756706 
4 1 6 8 0.042566540820053767879560524534099386073648929596 
4 1 7 8 0.034120563513251087051081356094073271378874778748 
4 1 8 5 -0.011398273778688029420069760533351654885336756706 
4 1 8 6 0.042566540820053767879560524534099386073648929596 
4 1 8 7 0.034120563513251087051081356094073271378874778748 
4 2 0 4 -0.008670718505010480484096468956067838007584214211 
4 2 1 4 0.025044956704916715439779295593325514346361160278 
4 2 2 4 0.038449734819455773371377205194221460260450839996 
4 2 4 0 -0.008670718505010480484096468956067838007584214211 
4 2 4 1 0.025044956704916715439779295593325514346361160278 
4 2 4 2 0.038449734819455773371377205194221460260450839996 
4 2 5 8 -0.007054723941690841347573748265631365939043462276 
4 2 6 8 0.039258534308706384552412060884307720698416233063 
4 2 7 8 0.004748924638254266999970454321555735077708959579 
4 2 8 5 -0.007054723941690841347573748265631365939043462276 
4 2 8 6 0.039258534308706384552412060884307720698416233063 
4 2 8 7 0.004748924638254266999970454321555735077708959579 
5 8 0 4 0.011321468711080180311046028407417907146736979485 
5 8 1 4 -0.011398273778688025950622808579737466061487793922 
5 8 2 4 -0.007054723941690837878126796312017177115194499493 
5 8 4 0 0.011321468711080180311046028407417907146736979485 
5 8 4 1 -0.011398273778688025950622808579737466061487793922 
5 8 4 2 -0.007054723941690837878126796312017177115194499493 
5 8 5 8 0.009251505779880007940274566635707742534577846527 
5 8 6 8 -0.011219951259388285733087364803850505268201231956 
5 8 7 8 -0.008646889851559227263555484910284576471894979477 
5 8 8 5 0.009251505779880007940274566635707742534577846527 
5 8 8 6 -0.011219951259388285733087364803850505268201231956 
5 8 8 7 -0.008646889851559227263555484910284576471894979477 
6 8 0 4 -0.013434546095330681184099042013713187770918011665 
6 8 1 4 0.042566540820053754001772716719642630778253078461 
6 8 2 4 0.039258534308706384552412060884307720698416233063 
6 8 4 0 -0.013434546095330681184099042013713187770918011665 
6 8 4 1 0.042566540820053754001772716719642630778253078461 
6 8 4 2 0.039258534308706384552412060884307720698416233063 
6 8 5 8 -0.011219951259388283998363888827043410856276750565 
6 8 6 8 0.050556612280814372528681133189820684492588043213 
6 8 7 8 0.023924489416842806971397195070494490209966897964 
6 8 8 5 -0.011219951259388283998363888827043410856276750565 
6 8 8 6 0.050556612280814372528681133189820684492588043213 
6 8 8 7 0.023924489416842806971397195070494490209966897964 
7 8 0 4 -0.009972047268420955110079795247202127939090132713 
7 8 1 4 0.034120563513251093989975260001301649026572704315 
7 8 2 4 0.004748924638254260928438288402730904635973274708 
7 8 4 0 -0.009972047268420955110079795247202127939090132713 
7 8 4 1 0.034120563513251093989975260001301649026572704315 
7 8 4 2 0.004748924638254260928438288402730904635973274708 
7 8 5 8 -0.008646889851559230733002436863898765295743942261 
7 8 6 8 0.023924489416842810440844147024108679033815860748 
7 8 7 8 0.035495607111322706461731257832070696167647838593 
7 8 8 5 -0.008646889851559230733002436863898765295743942261 
7 8 8 6 0.023924489416842810440844147024108679033815860748 
7 8 8 7 0.035495607111322706461731257832070696167647838593 
8 5 0 4 0.011321468711080180311046028407417907146736979485 
8 5 1 4 -0.011398273778688025950622808579737466061487793922 
8 5 2 4 -0.007054723941690837878126796312017177115194499493 
8 5 4 0 0.011321468711080180311046028407417907146736979485 
8 5 4 1 -0.011398273778688025950622808579737466061487793922 
8 5 4 2 -0.007054723941690837878126796312017177115194499493 
8 5 5 8 0.009251505779880007940274566635707742534577846527 
8 5 6 8 -0.011219951259388285733087364803850505268201231956 
8 5 7 8 -0.008646889851559227263555484910284576471894979477 
8 5 8 5 0.009251505779880007940274566635707742534577846527 
8 5 8 6 -0.011219951259388285733087364803850505268201231956 
8 5 8 7 -0.008646889851559227263555484910284576471894979477 
8 6 0 4 -0.013434546095330681184099042013713187770918011665 
8 6 1 4 0.042566540820053754001772716719642630778253078461 
8 6 2 4 0.039258534308706384552412060884307720698416233063 
8 6 4 0 -0.013434546095330681184099042013713187770918011665 
8 6 4 1 0.042566540820053754001772716719642630778253078461 
8 6 4 2 0.039258534308706384552412060884307720698416233063 
8 6 5 8 -0.011219951259388283998363888827043410856276750565 
8 6 6 8 0.050556612280814372528681133189820684492588043213 
8 6 7 8 0.023924489416842806971397195070494490209966897964 
8 6 8 5 -0.011219951259388283998363888827043410856276750565 
8 6 8 6 0.050556612280814372528681133189820684492588043213 
8 6 8 7 0.023924489416842806971397195070494490209966897964 
8 7 0 4 -0.009972047268420955110079795247202127939090132713 
8 7 1 4 0.034120563513251093989975260001301649026572704315 
8 7 2 4 0.004748924638254260928438288402730904635973274708 
8 7 4 0 -0.009972047268420955110079795247202127939090132713 
8 7 4 1 0.034120563513251093989975260001301649026572704315 
8 7 4 2 0.004748924638254260928438288402730904635973274708 
8 7 5 8 -0.008646889851559230733002436863898765295743942261 
8 7 6 8 0.023924489416842810440844147024108679033815860748 
8 7 7 8 0.035495607111322706461731257832070696167647838593 
8 7 8 5 -0.008646889851559230733002436863898765295743942261 
8 7 8 6 0.023924489416842810440844147024108679033815860748 
8 7 8 7 0.035495607111322706461731257832070696167647838593 
3 8 3 8 0.018953600226768237135832606554686208255589008331 
3 8 4 9 0.018953600226768237135832606554686208255589008331 
3 8 8 3 0.018953600226768237135832606554686208255589008331 
3 8 9 4 0.018953600226768237135832606554686208255589008331 
4 9 3 8 0.018953600226768237135832606554686208255589008331 
4 9 4 9 0.018953600226768237135832606554686208255589008331 
4 9 8 3 0.018953600226768237135832606554686208255589008331 
4 9 9 4 0.018953600226768237135832606554686208255589008331 
8 3 3 8 0.018953600226768237135832606554686208255589008331 
8 3 4 9 0.018953600226768237135832606554686208255589008331 
8 3 8 3 0.018953600226768237135832606554686208255589008331 
8 3 9 4 0.018953600226768237135832606554686208255589008331 
9 4 3 8 0.018953600226768237135832606554686208255589008331 
9 4 4 9 0.018953600226768237135832606554686208255589008331 
9 4 8 3 0.018953600226768237135832606554686208255589008331 
9 4 9 4 0.018953600226768237135832606554686208255589008331 
0 5 0 5 1.822693274905112348349689455062616616487503051758 
0 5 0 6 0.184031808319721656985734625777695327997207641602 
0 5 0 7 0.150313254652168076797025264568219427019357681274 
0 5 1 5 0.199186139369084663774955856752058025449514389038 
0 5 1 6 0.169937479102043542678046605942654423415660858154 
0 5 1 7 0.227235813817694226601773266338568646460771560669 
0 5 2 5 0.068241372851413212297089216917811427265405654907 
0 5 2 6 0.252453296237890478792564863397274166345596313477 
0 5 2 7 -0.191917422379602298221357159491162747144699096680 
0 5 3 9 0.274129485646504522655675373243866488337516784668 
0 5 4 8 0.274129485646504522655675373243866488337516784668 
0 5 5 0 1.822693274905112348349689455062616616487503051758 
0 5 5 1 0.199186139369084663774955856752058025449514389038 
0 5 5 2 0.068241372851413212297089216917811427265405654907 
0 5 6 0 0.184031808319721656985734625777695327997207641602 
0 5 6 1 0.169937479102043542678046605942654423415660858154 
0 5 6 2 0.252453296237890478792564863397274166345596313477 
0 5 7 0 0.150313254652168076797025264568219427019357681274 
0 5 7 1 0.227235813817694226601773266338568646460771560669 
0 5 7 2 -0.191917422379602298221357159491162747144699096680 
0 5 8 4 0.274129485646504522655675373243866488337516784668 
0 5 9 3 0.274129485646504522655675373243866488337516784668 
0 6 0 5 0.184031808319721740252461472664435859769582748413 
0 6 0 6 0.028611820258015188689348917705501662567257881165 
0 6 0 7 0.014777913047304580551610797556350007653236389160 
0 6 1 5 0.025999398495935244213228543230798095464706420898 
0 6 1 6 0.004776276184217271084109235346204513916745781898 
0 6 1 7 0.011476755530713502601036779537935217376798391342 
0 6 2 5 0.014772588373233334554934792492986161960288882256 
0 6 2 6 -0.002427086001275773063934337869795854203402996063 
0 6 2 7 -0.001670890740292332171668121532093209680169820786 
0 6 3 9 0.002673505891217300978190962723601842299103736877 
0 6 4 8 0.002673505891217300978190962723601842299103736877 
0 6 5 0 0.184031808319721740252461472664435859769582748413 
0 6 5 1 0.025999398495935244213228543230798095464706420898 
0 6 5 2 0.014772588373233334554934792492986161960288882256 
0 6 6 0 0.028611820258015188689348917705501662567257881165 
0 6 6 1 0.004776276184217271084109235346204513916745781898 
0 6 6 2 -0.002427086001275773063934337869795854203402996063 
0 6 7 0 0.014777913047304580551610797556350007653236389160 
0 6 7 1 0.011476755530713502601036779537935217376798391342 
0 6 7 2 -0.001670890740292332171668121532093209680169820786 
0 6 8 4 0.002673505891217300978190962723601842299103736877 
0 6 9 3 0.002673505891217300978190962723601842299103736877 
0 7 0 5 0.150313254652168076797025264568219427019357681274 
0 7 0 6 0.014777913047304577082163845602735818829387426376 
0 7 0 7 0.036246971598374796985631007828487781807780265808 
0 7 1 5 0.027820317806310678604431174676392402034252882004 
0 7 1 6 0.008118917215944194618049145617533213226124644279 
0 7 1 7 -0.005770456246420350467085658152655014418996870518 
0 7 2 5 -0.005082390577936179813789419057457052986137568951 
0 7 2 6 0.026374808742031408126393898783135227859020233154 
0 7 2 7 -0.009645303284002086641191198168598930351436138153 
0 7 3 9 0.009979281027364018605285700402873771963641047478 
0 7 4 8 0.009979281027364018605285700402873771963641047478 
0 7 5 0 0.150313254652168076797025264568219427019357681274 
0 7 5 1 0.027820317806310678604431174676392402034252882004 
0 7 5 2 -0.005082390577936179813789419057457052986137568951 
0 7 6 0 0.014777913047304577082163845602735818829387426376 
0 7 6 1 0.008118917215944194618049145617533213226124644279 
0 7 6 2 0.026374808742031408126393898783135227859020233154 
0 7 7 0 0.036246971598374796985631007828487781807780265808 
0 7 7 1 -0.005770456246420350467085658152655014418996870518 
0 7 7 2 -0.009645303284002086641191198168598930351436138153 
0 7 8 4 0.009979281027364018605285700402873771963641047478 
0 7 9 3 0.009979281027364018605285700402873771963641047478 
1 5 0 5 0.199186139369084747041682703638798557221889495850 
1 5 0 6 0.025999398495935244213228543230798095464706420898 
1 5 0 7 0.027820317806310702890559838351691723801195621490 
1 5 1 5 0.030947530275604595573213373427279293537139892578 
1 5 1 6 0.008335190243606259430375615693264990113675594330 
1 5 1 7 0.005149789246662926298081508491577551467344164848 
1 5 2 5 0.006974715179330568011473179268477906589396297932 
1 5 2 6 0.014076227882310984873548420637234812602400779724 
1 5 2 7 -0.006930326063952928564160238522617873968556523323 
1 5 3 9 0.008962254873281633865689244089480780530720949173 
1 5 4 8 0.008962254873281633865689244089480780530720949173 
1 5 5 0 0.199186139369084747041682703638798557221889495850 
1 5 5 1 0.030947530275604595573213373427279293537139892578 
1 5 5 2 0.006974715179330568011473179268477906589396297932 
1 5 6 0 0.025999398495935244213228543230798095464706420898 
1 5 6 1 0.008335190243606259430375615693264990113675594330 
1 5 6 2 0.014076227882310984873548420637234812602400779724 
1 5 7 0 0.027820317806310702890559838351691723801195621490 
1 5 7 1 0.005149789246662926298081508491577551467344164848 
1 5 7 2 -0.006930326063952928564160238522617873968556523323 
1 5 8 4 0.008962254873281633865689244089480780530720949173 
1 5 9 3 0.008962254873281633865689244089480780530720949173 
1 6 0 5 0.169937479102043542678046605942654423415660858154 
1 6 0 6 0.004776276184217264145215331438976136269047856331 
1 6 0 7 0.008118917215944189413878717687111929990351200104 
1 6 1 5 0.008335190243606252491481711786036612465977668762 
1 6 1 6 0.055154704587326075504449818254215642809867858887 
1 6 1 7 0.058746077219915690537099806078913388773798942566 
1 6 2 5 -0.000804108181034996882113885519061113882344216108 
1 6 2 6 0.092148421376592209997014037980989087373018264771 
1 6 2 7 -0.053451880367509280178595076904457528144121170044 
1 6 3 9 0.095305597006576647789444223235477693378925323486 
1 6 4 8 0.095305597006576647789444223235477693378925323486 
1 6 5 0 0.169937479102043542678046605942654423415660858154 
1 6 5 1 0.008335190243606252491481711786036612465977668762 
1 6 5 2 -0.000804108181034996882113885519061113882344216108 
1 6 6 0 0.004776276184217264145215331438976136269047856331 
1 6 6 1 0.055154704587326075504449818254215642809867858887 
1 6 6 2 0.092148421376592209997014037980989087373018264771 
1 6 7 0 0.008118917215944189413878717687111929990351200104 
1 6 7 1 0.058746077219915690537099806078913388773798942566 
1 6 7 2 -0.053451880367509280178595076904457528144121170044 
1 6 8 4 0.095305597006576647789444223235477693378925323486 
1 6 9 3 0.095305597006576647789444223235477693378925323486 
1 7 0 5 0.227235813817694282112924497596395667642354965210 
1 7 0 6 0.011476755530713509539930683445163595024496316910 
1 7 0 7 -0.005770456246420342660830016257023089565336704254 
1 7 1 5 0.005149789246662914155017176653927890583872795105 
1 7 1 6 0.058746077219915690537099806078913388773798942566 
1 7 1 7 0.106704922237872951162884760378801729530096054077 
1 7 2 5 0.010811216256394024295972577931479463586583733559 
1 7 2 6 0.057886560561413155645560379980452125892043113708 
1 7 2 7 -0.058513312125035368826964088384556816890835762024 
1 7 3 9 0.102285768792246545277890845682122744619846343994 
1 7 4 8 0.102285768792246545277890845682122744619846343994 
1 7 5 0 0.227235813817694282112924497596395667642354965210 
1 7 5 1 0.005149789246662914155017176653927890583872795105 
1 7 5 2 0.010811216256394024295972577931479463586583733559 
1 7 6 0 0.011476755530713509539930683445163595024496316910 
1 7 6 1 0.058746077219915690537099806078913388773798942566 
1 7 6 2 0.057886560561413155645560379980452125892043113708 
1 7 7 0 -0.005770456246420342660830016257023089565336704254 
1 7 7 1 0.106704922237872951162884760378801729530096054077 
1 7 7 2 -0.058513312125035368826964088384556816890835762024 
1 7 8 4 0.102285768792246545277890845682122744619846343994 
1 7 9 3 0.102285768792246545277890845682122744619846343994 
2 5 0 5 0.068241372851413253930452640361181693151593208313 
2 5 0 6 0.014772588373233338024381744446600350784137845039 
2 5 0 7 -0.005082390577936168538086825208210939308628439903 
2 5 1 5 0.006974715179330564542026227314863717765547335148 
2 5 1 6 -0.000804108181034991027422154097337170242099091411 
2 5 1 7 0.010811216256394020826525625977865274762734770775 
2 5 2 5 0.013313631584880221761513219291828136192634701729 
2 5 2 6 -0.014970290097780360877299798971762356813997030258 
2 5 2 7 0.003462537079955051166901824899468920193612575531 
2 5 3 9 -0.003879382995510989411147573235894014942459762096 
2 5 4 8 -0.003879382995510989411147573235894014942459762096 
2 5 5 0 0.068241372851413253930452640361181693151593208313 
2 5 5 1 0.006974715179330564542026227314863717765547335148 
2 5 5 2 0.013313631584880221761513219291828136192634701729 
2 5 6 0 0.014772588373233338024381744446600350784137845039 
2 5 6 1 -0.000804108181034991027422154097337170242099091411 
2 5 6 2 -0.014970290097780360877299798971762356813997030258 
2 5 7 0 -0.005082390577936168538086825208210939308628439903 
2 5 7 1 0.010811216256394020826525625977865274762734770775 
2 5 7 2 0.003462537079955051166901824899468920193612575531 
2 5 8 4 -0.003879382995510989411147573235894014942459762096 
2 5 9 3 -0.003879382995510989411147573235894014942459762096 
2 6 0 5 0.252453296237890589814867325912928208708763122559 
2 6 0 6 -0.002427086001275755716699578101724910084158182144 
2 6 0 7 0.026374808742031408126393898783135227859020233154 
2 6 1 5 0.014076227882310977934654516730006434954702854156 
2 6 1 6 0.092148421376592223874801845795445842668414115906 
2 6 1 7 0.057886560561413197278923803423822391778230667114 
2 6 2 5 -0.014970290097780362612023274948569451225921511650 
2 6 2 6 0.224774994733576150007792193719069473445415496826 
2 6 2 7 -0.124008007237358081065181636404304299503564834595 
2 6 3 9 0.157569343529155497796168106106051709502935409546 
2 6 4 8 0.157569343529155497796168106106051709502935409546 
2 6 5 0 0.252453296237890589814867325912928208708763122559 
2 6 5 1 0.014076227882310977934654516730006434954702854156 
2 6 5 2 -0.014970290097780362612023274948569451225921511650 
2 6 6 0 -0.002427086001275755716699578101724910084158182144 
2 6 6 1 0.092148421376592223874801845795445842668414115906 
2 6 6 2 0.224774994733576150007792193719069473445415496826 
2 6 7 0 0.026374808742031408126393898783135227859020233154 
2 6 7 1 0.057886560561413197278923803423822391778230667114 
2 6 7 2 -0.124008007237358081065181636404304299503564834595 
2 6 8 4 0.157569343529155497796168106106051709502935409546 
2 6 9 3 0.157569343529155497796168106106051709502935409546 
2 7 0 5 -0.191917422379602242710205928233335725963115692139 
2 7 0 6 -0.001670890740292337375838549462514492915943264961 
2 7 0 7 -0.009645303284002114396766813797512440942227840424 
2 7 1 5 -0.006930326063952921625266334615389496320858597755 
2 7 1 6 -0.053451880367509252423019461275544017553329467773 
2 7 1 7 -0.058513312125035396582539704013470327481627464294 
2 7 2 5 0.003462537079955057672114859812495524238329380751 
2 7 2 6 -0.124008007237358136576332867662131320685148239136 
2 7 2 7 0.090767800494519046416996843618107959628105163574 
2 7 3 9 -0.090952090040643127077935048419021768495440483093 
2 7 4 8 -0.090952090040643127077935048419021768495440483093 
2 7 5 0 -0.191917422379602242710205928233335725963115692139 
2 7 5 1 -0.006930326063952921625266334615389496320858597755 
2 7 5 2 0.003462537079955057672114859812495524238329380751 
2 7 6 0 -0.001670890740292337375838549462514492915943264961 
2 7 6 1 -0.053451880367509252423019461275544017553329467773 
2 7 6 2 -0.124008007237358136576332867662131320685148239136 
2 7 7 0 -0.009645303284002114396766813797512440942227840424 
2 7 7 1 -0.058513312125035396582539704013470327481627464294 
2 7 7 2 0.090767800494519046416996843618107959628105163574 
2 7 8 4 -0.090952090040643127077935048419021768495440483093 
2 7 9 3 -0.090952090040643127077935048419021768495440483093 
3 9 0 5 0.274129485646504522655675373243866488337516784668 
3 9 0 6 0.002673505891217292304573582839566370239481329918 
3 9 0 7 0.009979281027364013401115272472452488727867603302 
3 9 1 5 0.008962254873281628661518816159059497294947504997 
3 9 1 6 0.095305597006576675545019838864391203969717025757 
3 9 1 7 0.102285768792246545277890845682122744619846343994 
3 9 2 5 -0.003879382995510988110104966253288694133516401052 
3 9 2 6 0.157569343529155497796168106106051709502935409546 
3 9 2 7 -0.090952090040643196466874087491305544972419738770 
3 9 3 9 0.186756416044122547370776032948924694210290908813 
3 9 4 8 0.148849215590585948199020549509441480040550231934 
3 9 5 0 0.274129485646504522655675373243866488337516784668 
3 9 5 1 0.008962254873281628661518816159059497294947504997 
3 9 5 2 -0.003879382995510988110104966253288694133516401052 
3 9 6 0 0.002673505891217292304573582839566370239481329918 
3 9 6 1 0.095305597006576675545019838864391203969717025757 
3 9 6 2 0.157569343529155497796168106106051709502935409546 
3 9 7 0 0.009979281027364013401115272472452488727867603302 
3 9 7 1 0.102285768792246545277890845682122744619846343994 
3 9 7 2 -0.090952090040643196466874087491305544972419738770 
3 9 8 4 0.148849215590585948199020549509441480040550231934 
3 9 9 3 0.186756416044122547370776032948924694210290908813 
4 8 0 5 0.274129485646504522655675373243866488337516784668 
4 8 0 6 0.002673505891217292304573582839566370239481329918 
4 8 0 7 0.009979281027364013401115272472452488727867603302 
4 8 1 5 0.008962254873281628661518816159059497294947504997 
4 8 1 6 0.095305597006576675545019838864391203969717025757 
4 8 1 7 0.102285768792246545277890845682122744619846343994 
4 8 2 5 -0.003879382995510988110104966253288694133516401052 
4 8 2 6 0.157569343529155497796168106106051709502935409546 
4 8 2 7 -0.090952090040643196466874087491305544972419738770 
4 8 3 9 0.148849215590585948199020549509441480040550231934 
4 8 4 8 0.186756416044122547370776032948924694210290908813 
4 8 5 0 0.274129485646504522655675373243866488337516784668 
4 8 5 1 0.008962254873281628661518816159059497294947504997 
4 8 5 2 -0.003879382995510988110104966253288694133516401052 
4 8 6 0 0.002673505891217292304573582839566370239481329918 
4 8 6 1 0.095305597006576675545019838864391203969717025757 
4 8 6 2 0.157569343529155497796168106106051709502935409546 
4 8 7 0 0.009979281027364013401115272472452488727867603302 
4 8 7 1 0.102285768792246545277890845682122744619846343994 
4 8 7 2 -0.090952090040643196466874087491305544972419738770 
4 8 8 4 0.186756416044122547370776032948924694210290908813 
4 8 9 3 0.148849215590585948199020549509441480040550231934 
5 0 0 5 1.822693274905112348349689455062616616487503051758 
5 0 0 6 0.184031808319721656985734625777695327997207641602 
5 0 0 7 0.150313254652168076797025264568219427019357681274 
5 0 1 5 0.199186139369084663774955856752058025449514389038 
5 0 1 6 0.169937479102043542678046605942654423415660858154 
5 0 1 7 0.227235813817694226601773266338568646460771560669 
5 0 2 5 0.068241372851413212297089216917811427265405654907 
5 0 2 6 0.252453296237890478792564863397274166345596313477 
5 0 2 7 -0.191917422379602298221357159491162747144699096680 
5 0 3 9 0.274129485646504522655675373243866488337516784668 
5 0 4 8 0.274129485646504522655675373243866488337516784668 
5 0 5 0 1.822693274905112348349689455062616616487503051758 
5 0 5 1 0.199186139369084663774955856752058025449514389038 
5 0 5 2 0.068241372851413212297089216917811427265405654907 
5 0 6 0 0.184031808319721656985734625777695327997207641602 
5 0 6 1 0.169937479102043542678046605942654423415660858154 
5 0 6 2 0.252453296237890478792564863397274166345596313477 
5 0 7 0 0.150313254652168076797025264568219427019357681274 
5 0 7 1 0.227235813817694226601773266338568646460771560669 
5 0 7 2 -0.191917422379602298221357159491162747144699096680 
5 0 8 4 0.274129485646504522655675373243866488337516784668 
5 0 9 3 0.274129485646504522655675373243866488337516784668 
5 1 0 5 0.199186139369084747041682703638798557221889495850 
5 1 0 6 0.025999398495935244213228543230798095464706420898 
5 1 0 7 0.027820317806310702890559838351691723801195621490 
5 1 1 5 0.030947530275604595573213373427279293537139892578 
5 1 1 6 0.008335190243606259430375615693264990113675594330 
5 1 1 7 0.005149789246662926298081508491577551467344164848 
5 1 2 5 0.006974715179330568011473179268477906589396297932 
5 1 2 6 0.014076227882310984873548420637234812602400779724 
5 1 2 7 -0.006930326063952928564160238522617873968556523323 
5 1 3 9 0.008962254873281633865689244089480780530720949173 
5 1 4 8 0.008962254873281633865689244089480780530720949173 
5 1 5 0 0.199186139369084747041682703638798557221889495850 
5 1 5 1 0.030947530275604595573213373427279293537139892578 
5 1 5 2 0.006974715179330568011473179268477906589396297932 
5 1 6 0 0.025999398495935244213228543230798095464706420898 
5 1 6 1 0.008335190243606259430375615693264990113675594330 
5 1 6 2 0.014076227882310984873548420637234812602400779724 
5 1 7 0 0.027820317806310702890559838351691723801195621490 
5 1 7 1 0.005149789246662926298081508491577551467344164848 
5 1 7 2 -0.006930326063952928564160238522617873968556523323 
5 1 8 4 0.008962254873281633865689244089480780530720949173 
5 1 9 3 0.008962254873281633865689244089480780530720949173 
5 2 0 5 0.068241372851413253930452640361181693151593208313 
5 2 0 6 0.014772588373233338024381744446600350784137845039 
5 2 0 7 -0.005082390577936168538086825208210939308628439903 
5 2 1 5 0.006974715179330564542026227314863717765547335148 
5 2 1 6 -0.000804108181034991027422154097337170242099091411 
5 2 1 7 0.010811216256394020826525625977865274762734770775 
5 2 2 5 0.013313631584880221761513219291828136192634701729 
5 2 2 6 -0.014970290097780360877299798971762356813997030258 
5 2 2 7 0.003462537079955051166901824899468920193612575531 
5 2 3 9 -0.003879382995510989411147573235894014942459762096 
5 2 4 8 -0.003879382995510989411147573235894014942459762096 
5 2 5 0 0.068241372851413253930452640361181693151593208313 
5 2 5 1 0.006974715179330564542026227314863717765547335148 
5 2 5 2 0.013313631584880221761513219291828136192634701729 
5 2 6 0 0.014772588373233338024381744446600350784137845039 
5 2 6 1 -0.000804108181034991027422154097337170242099091411 
5 2 6 2 -0.014970290097780360877299798971762356813997030258 
5 2 7 0 -0.005082390577936168538086825208210939308628439903 
5 2 7 1 0.010811216256394020826525625977865274762734770775 
5 2 7 2 0.003462537079955051166901824899468920193612575531 
5 2 8 4 -0.003879382995510989411147573235894014942459762096 
5 2 9 3 -0.003879382995510989411147573235894014942459762096 
6 0 0 5 0.184031808319721740252461472664435859769582748413 
6 0 0 6 0.028611820258015188689348917705501662567257881165 
6 0 0 7 0.014777913047304580551610797556350007653236389160 
6 0 1 5 0.025999398495935244213228543230798095464706420898 
6 0 1 6 0.004776276184217271084109235346204513916745781898 
6 0 1 7 0.011476755530713502601036779537935217376798391342 
6 0 2 5 0.014772588373233334554934792492986161960288882256 
6 0 2 6 -0.002427086001275773063934337869795854203402996063 
6 0 2 7 -0.001670890740292332171668121532093209680169820786 
6 0 3 9 0.002673505891217300978190962723601842299103736877 
6 0 4 8 0.002673505891217300978190962723601842299103736877 
6 0 5 0 0.184031808319721740252461472664435859769582748413 
6 0 5 1 0.025999398495935244213228543230798095464706420898 
[...]
8 4 1 7 0.102285768792246545277890845682122744619846343994 
8 4 2 5 -0.003879382995510988110104966253288694133516401052 
8 4 2 6 0.157569343529155497796168106106051709502935409546 
8 4 2 7 -0.090952090040643196466874087491305544972419738770 
8 4 3 9 0.148849215590585948199020549509441480040550231934 
8 4 4 8 0.186756416044122547370776032948924694210290908813 
8 4 5 0 0.274129485646504522655675373243866488337516784668 
8 4 5 1 0.008962254873281628661518816159059497294947504997 
8 4 5 2 -0.003879382995510988110104966253288694133516401052 
8 4 6 0 0.002673505891217292304573582839566370239481329918 
8 4 6 1 0.095305597006576675545019838864391203969717025757 
8 4 6 2 0.157569343529155497796168106106051709502935409546 
8 4 7 0 0.009979281027364013401115272472452488727867603302 
8 4 7 1 0.102285768792246545277890845682122744619846343994 
8 4 7 2 -0.090952090040643196466874087491305544972419738770 
8 4 8 4 0.186756416044122547370776032948924694210290908813 
8 4 9 3 0.148849215590585948199020549509441480040550231934 
9 3 0 5 0.274129485646504522655675373243866488337516784668 
9 3 0 6 0.002673505891217292304573582839566370239481329918 
9 3 0 7 0.009979281027364013401115272472452488727867603302 
9 3 1 5 0.008962254873281628661518816159059497294947504997 
9 3 1 6 0.095305597006576675545019838864391203969717025757 
9 3 1 7 0.102285768792246545277890845682122744619846343994 
9 3 2 5 -0.003879382995510988110104966253288694133516401052 
9 3 2 6 0.157569343529155497796168106106051709502935409546 
9 3 2 7 -0.090952090040643196466874087491305544972419738770 
9 3 3 9 0.186756416044122547370776032948924694210290908813 
9 3 4 8 0.148849215590585948199020549509441480040550231934 
9 3 5 0 0.274129485646504522655675373243866488337516784668 
9 3 5 1 0.008962254873281628661518816159059497294947504997 
9 3 5 2 -0.003879382995510988110104966253288694133516401052 
9 3 6 0 0.002673505891217292304573582839566370239481329918 
9 3 6 1 0.095305597006576675545019838864391203969717025757 
9 3 6 2 0.157569343529155497796168106106051709502935409546 
9 3 7 0 0.009979281027364013401115272472452488727867603302 
9 3 7 1 0.102285768792246545277890845682122744619846343994 
9 3 7 2 -0.090952090040643196466874087491305544972419738770 
9 3 8 4 0.148849215590585948199020549509441480040550231934 
9 3 9 3 0.186756416044122547370776032948924694210290908813 
0 8 0 8 0.009771526277526037737586328546512959292158484459 
0 8 1 8 -0.016719198625604024532886882070670253597199916840 
0 8 2 8 -0.004870178640288788315948487195328198140487074852 
0 8 4 5 0.011915060370913232307144014043842616956681013107 
0 8 4 6 -0.015611615372830400794157412747154012322425842285 
0 8 4 7 -0.011230858770361404688764572767922800267115235329 
0 8 5 4 0.011915060370913232307144014043842616956681013107 
0 8 6 4 -0.015611615372830400794157412747154012322425842285 
0 8 7 4 -0.011230858770361404688764572767922800267115235329 
0 8 8 0 0.009771526277526037737586328546512959292158484459 
0 8 8 1 -0.016719198625604024532886882070670253597199916840 
0 8 8 2 -0.004870178640288788315948487195328198140487074852 
1 8 0 8 -0.016719198625604024532886882070670253597199916840 
1 8 1 8 0.105646077786142544852054925286211073398590087891 
1 8 2 8 0.014022129696004416790633406719734921352937817574 
1 8 4 5 -0.018956334811334175222130582483259786386042833328 
1 8 4 6 0.074071489057436226688402314266568282619118690491 
1 8 4 7 0.062199177836337181390913286804789095185697078705 
1 8 5 4 -0.018956334811334175222130582483259786386042833328 
1 8 6 4 0.074071489057436226688402314266568282619118690491 
1 8 7 4 0.062199177836337181390913286804789095185697078705 
1 8 8 0 -0.016719198625604024532886882070670253597199916840 
1 8 8 1 0.105646077786142544852054925286211073398590087891 
1 8 8 2 0.014022129696004416790633406719734921352937817574 
2 8 0 8 -0.004870178640288785713863273230117556522600352764 
2 8 1 8 0.014022129696004411586462978789313638117164373398 
2 8 2 8 0.028098903550742015955421493345056660473346710205 
2 8 4 5 -0.006251541355649268931482520628151178243570029736 
2 8 4 6 0.037663202638440876346415109310328261926770210266 
2 8 4 7 -0.000083460473382625244287424948197440244257450104 
2 8 5 4 -0.006251541355649268931482520628151178243570029736 
2 8 6 4 0.037663202638440876346415109310328261926770210266 
2 8 7 4 -0.000083460473382625244287424948197440244257450104 
2 8 8 0 -0.004870178640288785713863273230117556522600352764 
2 8 8 1 0.014022129696004411586462978789313638117164373398 
2 8 8 2 0.028098903550742015955421493345056660473346710205 
4 5 0 8 0.011915060370913232307144014043842616956681013107 
4 5 1 8 -0.018956334811334171752683630529645597562193870544 
4 5 2 8 -0.006251541355649268931482520628151178243570029736 
4 5 4 5 0.014567111908861072114285128975552652264013886452 
4 5 4 6 -0.018566563489868841141383626336391898803412914276 
4 5 4 7 -0.012739919881105005519672523917051876196637749672 
4 5 5 4 0.014567111908861072114285128975552652264013886452 
4 5 6 4 -0.018566563489868841141383626336391898803412914276 
4 5 7 4 -0.012739919881105005519672523917051876196637749672 
4 5 8 0 0.011915060370913232307144014043842616956681013107 
4 5 8 1 -0.018956334811334171752683630529645597562193870544 
4 5 8 2 -0.006251541355649268931482520628151178243570029736 
4 6 0 8 -0.015611615372830397324710460793539823498576879501 
4 6 1 8 0.074071489057436226688402314266568282619118690491 
4 6 2 8 0.037663202638440862468627301495871506631374359131 
4 6 4 5 -0.018566563489868837671936674382777709979563951492 
4 6 4 6 0.082375544175149903458610367579240119084715843201 
4 6 4 7 0.036330365075423490250905445009266259148716926575 
4 6 5 4 -0.018566563489868837671936674382777709979563951492 
4 6 6 4 0.082375544175149903458610367579240119084715843201 
4 6 7 4 0.036330365075423490250905445009266259148716926575 
4 6 8 0 -0.015611615372830397324710460793539823498576879501 
4 6 8 1 0.074071489057436226688402314266568282619118690491 
4 6 8 2 0.037663202638440862468627301495871506631374359131 
4 7 0 8 -0.011230858770361402954041096791115705855190753937 
4 7 1 8 0.062199177836337174452019382897560717537999153137 
4 7 2 8 -0.000083460473382631383582226647366297811458935030 
4 7 4 5 -0.012739919881104996846055144033016404137015342712 
4 7 4 6 0.036330365075423531884268868452636525034904479980 
4 7 4 7 0.047521307997818479362805987875617574900388717651 
4 7 5 4 -0.012739919881104996846055144033016404137015342712 
4 7 6 4 0.036330365075423531884268868452636525034904479980 
4 7 7 4 0.047521307997818479362805987875617574900388717651 
4 7 8 0 -0.011230858770361402954041096791115705855190753937 
4 7 8 1 0.062199177836337174452019382897560717537999153137 
4 7 8 2 -0.000083460473382631383582226647366297811458935030 
5 4 0 8 0.011915060370913232307144014043842616956681013107 
5 4 1 8 -0.018956334811334171752683630529645597562193870544 
5 4 2 8 -0.006251541355649268931482520628151178243570029736 
5 4 4 5 0.014567111908861072114285128975552652264013886452 
5 4 4 6 -0.018566563489868841141383626336391898803412914276 
5 4 4 7 -0.012739919881105005519672523917051876196637749672 
5 4 5 4 0.014567111908861072114285128975552652264013886452 
5 4 6 4 -0.018566563489868841141383626336391898803412914276 
5 4 7 4 -0.012739919881105005519672523917051876196637749672 
5 4 8 0 0.011915060370913232307144014043842616956681013107 
5 4 8 1 -0.018956334811334171752683630529645597562193870544 
5 4 8 2 -0.006251541355649268931482520628151178243570029736 
6 4 0 8 -0.015611615372830397324710460793539823498576879501 
6 4 1 8 0.074071489057436226688402314266568282619118690491 
6 4 2 8 0.037663202638440862468627301495871506631374359131 
6 4 4 5 -0.018566563489868837671936674382777709979563951492 
6 4 4 6 0.082375544175149903458610367579240119084715843201 
6 4 4 7 0.036330365075423490250905445009266259148716926575 
6 4 5 4 -0.018566563489868837671936674382777709979563951492 
6 4 6 4 0.082375544175149903458610367579240119084715843201 
6 4 7 4 0.036330365075423490250905445009266259148716926575 
6 4 8 0 -0.015611615372830397324710460793539823498576879501 
6 4 8 1 0.074071489057436226688402314266568282619118690491 
6 4 8 2 0.037663202638440862468627301495871506631374359131 
7 4 0 8 -0.011230858770361402954041096791115705855190753937 
7 4 1 8 0.062199177836337174452019382897560717537999153137 
7 4 2 8 -0.000083460473382631383582226647366297811458935030 
7 4 4 5 -0.012739919881104996846055144033016404137015342712 
7 4 4 6 0.036330365075423531884268868452636525034904479980 
7 4 4 7 0.047521307997818479362805987875617574900388717651 
7 4 5 4 -0.012739919881104996846055144033016404137015342712 
7 4 6 4 0.036330365075423531884268868452636525034904479980 
7 4 7 4 0.047521307997818479362805987875617574900388717651 
7 4 8 0 -0.011230858770361402954041096791115705855190753937 
7 4 8 1 0.062199177836337174452019382897560717537999153137 
7 4 8 2 -0.000083460473382631383582226647366297811458935030 
8 0 0 8 0.009771526277526037737586328546512959292158484459 
8 0 1 8 -0.016719198625604024532886882070670253597199916840 
8 0 2 8 -0.004870178640288788315948487195328198140487074852 
8 0 4 5 0.011915060370913232307144014043842616956681013107 
8 0 4 6 -0.015611615372830400794157412747154012322425842285 
8 0 4 7 -0.011230858770361404688764572767922800267115235329 
8 0 5 4 0.011915060370913232307144014043842616956681013107 
8 0 6 4 -0.015611615372830400794157412747154012322425842285 
8 0 7 4 -0.011230858770361404688764572767922800267115235329 
8 0 8 0 0.009771526277526037737586328546512959292158484459 
8 0 8 1 -0.016719198625604024532886882070670253597199916840 
8 0 8 2 -0.004870178640288788315948487195328198140487074852 
8 1 0 8 -0.016719198625604024532886882070670253597199916840 
8 1 1 8 0.105646077786142544852054925286211073398590087891 
8 1 2 8 0.014022129696004416790633406719734921352937817574 
8 1 4 5 -0.018956334811334175222130582483259786386042833328 
8 1 4 6 0.074071489057436226688402314266568282619118690491 
8 1 4 7 0.062199177836337181390913286804789095185697078705 
8 1 5 4 -0.018956334811334175222130582483259786386042833328 
8 1 6 4 0.074071489057436226688402314266568282619118690491 
8 1 7 4 0.062199177836337181390913286804789095185697078705 
8 1 8 0 -0.016719198625604024532886882070670253597199916840 
8 1 8 1 0.105646077786142544852054925286211073398590087891 
8 1 8 2 0.014022129696004416790633406719734921352937817574 
8 2 0 8 -0.004870178640288785713863273230117556522600352764 
8 2 1 8 0.014022129696004411586462978789313638117164373398 
8 2 2 8 0.028098903550742015955421493345056660473346710205 
8 2 4 5 -0.006251541355649268931482520628151178243570029736 
8 2 4 6 0.037663202638440876346415109310328261926770210266 
8 2 4 7 -0.000083460473382625244287424948197440244257450104 
8 2 5 4 -0.006251541355649268931482520628151178243570029736 
8 2 6 4 0.037663202638440876346415109310328261926770210266 
8 2 7 4 -0.000083460473382625244287424948197440244257450104 
8 2 8 0 -0.004870178640288785713863273230117556522600352764 
8 2 8 1 0.014022129696004411586462978789313638117164373398 
8 2 8 2 0.028098903550742015955421493345056660473346710205 
0 9 0 9 0.009771526277526037737586328546512959292158484459 
0 9 1 9 -0.016719198625604024532886882070670253597199916840 
0 9 2 9 -0.004870178640288788315948487195328198140487074852 
0 9 3 5 0.011915060370913232307144014043842616956681013107 
0 9 3 6 -0.015611615372830400794157412747154012322425842285 
0 9 3 7 -0.011230858770361404688764572767922800267115235329 
0 9 5 3 0.011915060370913232307144014043842616956681013107 
0 9 6 3 -0.015611615372830400794157412747154012322425842285 
0 9 7 3 -0.011230858770361404688764572767922800267115235329 
0 9 9 0 0.009771526277526037737586328546512959292158484459 
0 9 9 1 -0.016719198625604024532886882070670253597199916840 
0 9 9 2 -0.004870178640288788315948487195328198140487074852 
1 9 0 9 -0.016719198625604024532886882070670253597199916840 
1 9 1 9 0.105646077786142544852054925286211073398590087891 
1 9 2 9 0.014022129696004416790633406719734921352937817574 
1 9 3 5 -0.018956334811334175222130582483259786386042833328 
1 9 3 6 0.074071489057436226688402314266568282619118690491 
1 9 3 7 0.062199177836337181390913286804789095185697078705 
1 9 5 3 -0.018956334811334175222130582483259786386042833328 
1 9 6 3 0.074071489057436226688402314266568282619118690491 
1 9 7 3 0.062199177836337181390913286804789095185697078705 
1 9 9 0 -0.016719198625604024532886882070670253597199916840 
1 9 9 1 0.105646077786142544852054925286211073398590087891 
1 9 9 2 0.014022129696004416790633406719734921352937817574 
2 9 0 9 -0.004870178640288785713863273230117556522600352764 
2 9 1 9 0.014022129696004411586462978789313638117164373398 
2 9 2 9 0.028098903550742015955421493345056660473346710205 
2 9 3 5 -0.006251541355649268931482520628151178243570029736 
2 9 3 6 0.037663202638440876346415109310328261926770210266 
2 9 3 7 -0.000083460473382625244287424948197440244257450104 
2 9 5 3 -0.006251541355649268931482520628151178243570029736 
2 9 6 3 0.037663202638440876346415109310328261926770210266 
2 9 7 3 -0.000083460473382625244287424948197440244257450104 
2 9 9 0 -0.004870178640288785713863273230117556522600352764 
2 9 9 1 0.014022129696004411586462978789313638117164373398 
2 9 9 2 0.028098903550742015955421493345056660473346710205 
3 5 0 9 0.011915060370913232307144014043842616956681013107 
3 5 1 9 -0.018956334811334171752683630529645597562193870544 
3 5 2 9 -0.006251541355649268931482520628151178243570029736 
3 5 3 5 0.014567111908861072114285128975552652264013886452 
3 5 3 6 -0.018566563489868841141383626336391898803412914276 
3 5 3 7 -0.012739919881105005519672523917051876196637749672 
3 5 5 3 0.014567111908861072114285128975552652264013886452 
3 5 6 3 -0.018566563489868841141383626336391898803412914276 
3 5 7 3 -0.012739919881105005519672523917051876196637749672 
3 5 9 0 0.011915060370913232307144014043842616956681013107 
3 5 9 1 -0.018956334811334171752683630529645597562193870544 
3 5 9 2 -0.006251541355649268931482520628151178243570029736 
3 6 0 9 -0.015611615372830397324710460793539823498576879501 
3 6 1 9 0.074071489057436226688402314266568282619118690491 
3 6 2 9 0.037663202638440862468627301495871506631374359131 
3 6 3 5 -0.018566563489868837671936674382777709979563951492 
3 6 3 6 0.082375544175149903458610367579240119084715843201 
3 6 3 7 0.036330365075423490250905445009266259148716926575 
3 6 5 3 -0.018566563489868837671936674382777709979563951492 
3 6 6 3 0.082375544175149903458610367579240119084715843201 
3 6 7 3 0.036330365075423490250905445009266259148716926575 
3 6 9 0 -0.015611615372830397324710460793539823498576879501 
3 6 9 1 0.074071489057436226688402314266568282619118690491 
3 6 9 2 0.037663202638440862468627301495871506631374359131 
3 7 0 9 -0.011230858770361402954041096791115705855190753937 
3 7 1 9 0.062199177836337174452019382897560717537999153137 
3 7 2 9 -0.000083460473382631383582226647366297811458935030 
3 7 3 5 -0.012739919881104996846055144033016404137015342712 
3 7 3 6 0.036330365075423531884268868452636525034904479980 
3 7 3 7 0.047521307997818479362805987875617574900388717651 
3 7 5 3 -0.012739919881104996846055144033016404137015342712 
3 7 6 3 0.036330365075423531884268868452636525034904479980 
3 7 7 3 0.047521307997818479362805987875617574900388717651 
3 7 9 0 -0.011230858770361402954041096791115705855190753937 
3 7 9 1 0.062199177836337174452019382897560717537999153137 
3 7 9 2 -0.000083460473382631383582226647366297811458935030 
5 3 0 9 0.011915060370913232307144014043842616956681013107 
5 3 1 9 -0.018956334811334171752683630529645597562193870544 
5 3 2 9 -0.006251541355649268931482520628151178243570029736 
5 3 3 5 0.014567111908861072114285128975552652264013886452 
5 3 3 6 -0.018566563489868841141383626336391898803412914276 
5 3 3 7 -0.012739919881105005519672523917051876196637749672 
5 3 5 3 0.014567111908861072114285128975552652264013886452 
5 3 6 3 -0.018566563489868841141383626336391898803412914276 
5 3 7 3 -0.012739919881105005519672523917051876196637749672 
5 3 9 0 0.011915060370913232307144014043842616956681013107 
5 3 9 1 -0.018956334811334171752683630529645597562193870544 
5 3 9 2 -0.006251541355649268931482520628151178243570029736 
6 3 0 9 -0.015611615372830397324710460793539823498576879501 
6 3 1 9 0.074071489057436226688402314266568282619118690491 
6 3 2 9 0.037663202638440862468627301495871506631374359131 
6 3 3 5 -0.018566563489868837671936674382777709979563951492 
6 3 3 6 0.082375544175149903458610367579240119084715843201 
6 3 3 7 0.036330365075423490250905445009266259148716926575 
6 3 5 3 -0.018566563489868837671936674382777709979563951492 
6 3 6 3 0.082375544175149903458610367579240119084715843201 
6 3 7 3 0.036330365075423490250905445009266259148716926575 
6 3 9 0 -0.015611615372830397324710460793539823498576879501 
6 3 9 1 0.074071489057436226688402314266568282619118690491 
6 3 9 2 0.037663202638440862468627301495871506631374359131 
7 3 0 9 -0.011230858770361402954041096791115705855190753937 
7 3 1 9 0.062199177836337174452019382897560717537999153137 
7 3 2 9 -0.000083460473382631383582226647366297811458935030 
7 3 3 5 -0.012739919881104996846055144033016404137015342712 
7 3 3 6 0.036330365075423531884268868452636525034904479980 
7 3 3 7 0.047521307997818479362805987875617574900388717651 
7 3 5 3 -0.012739919881104996846055144033016404137015342712 
7 3 6 3 0.036330365075423531884268868452636525034904479980 
7 3 7 3 0.047521307997818479362805987875617574900388717651 
7 3 9 0 -0.011230858770361402954041096791115705855190753937 
7 3 9 1 0.062199177836337174452019382897560717537999153137 
7 3 9 2 -0.000083460473382631383582226647366297811458935030 
9 0 0 9 0.009771526277526037737586328546512959292158484459 
9 0 1 9 -0.016719198625604024532886882070670253597199916840 
9 0 2 9 -0.004870178640288788315948487195328198140487074852 
9 0 3 5 0.011915060370913232307144014043842616956681013107 
9 0 3 6 -0.015611615372830400794157412747154012322425842285 
9 0 3 7 -0.011230858770361404688764572767922800267115235329 
9 0 5 3 0.011915060370913232307144014043842616956681013107 
9 0 6 3 -0.015611615372830400794157412747154012322425842285 
9 0 7 3 -0.011230858770361404688764572767922800267115235329 
9 0 9 0 0.009771526277526037737586328546512959292158484459 
9 0 9 1 -0.016719198625604024532886882070670253597199916840 
9 0 9 2 -0.004870178640288788315948487195328198140487074852 
9 1 0 9 -0.016719198625604024532886882070670253597199916840 
9 1 1 9 0.105646077786142544852054925286211073398590087891 
9 1 2 9 0.014022129696004416790633406719734921352937817574 
9 1 3 5 -0.018956334811334175222130582483259786386042833328 
9 1 3 6 0.074071489057436226688402314266568282619118690491 
9 1 3 7 0.062199177836337181390913286804789095185697078705 
9 1 5 3 -0.018956334811334175222130582483259786386042833328 
9 1 6 3 0.074071489057436226688402314266568282619118690491 
9 1 7 3 0.062199177836337181390913286804789095185697078705 
9 1 9 0 -0.016719198625604024532886882070670253597199916840 
9 1 9 1 0.105646077786142544852054925286211073398590087891 
9 1 9 2 0.014022129696004416790633406719734921352937817574 
9 2 0 9 -0.004870178640288785713863273230117556522600352764 
9 2 1 9 0.014022129696004411586462978789313638117164373398 
9 2 2 9 0.028098903550742015955421493345056660473346710205 
9 2 3 5 -0.006251541355649268931482520628151178243570029736 
9 2 3 6 0.037663202638440876346415109310328261926770210266 
9 2 3 7 -0.000083460473382625244287424948197440244257450104 
9 2 5 3 -0.006251541355649268931482520628151178243570029736 
9 2 6 3 0.037663202638440876346415109310328261926770210266 
9 2 7 3 -0.000083460473382625244287424948197440244257450104 
9 2 9 0 -0.004870178640288785713863273230117556522600352764 
9 2 9 1 0.014022129696004411586462978789313638117164373398 
9 2 9 2 0.028098903550742015955421493345056660473346710205 
****  HF Energy = -107.493567129006294180726399645209312438964843750000 
****  Molecular Integrals For CheMPS End Here 

*** PSI4 exiting successfully. Buy a developer a beer!
