 &FCI NORB= 28,NELEC= 16,MS2= 0,
  ORBSYM=1,1,1,1,1,1,1,4,6,6,6,7,7,7,8,5,5,5,5,5,5,5,3,3,3,2,2,2,
  ISYM=1,
 /
  2.5373719409156208E+00   1   1   1   1
 -2.2902002821451745E-01   2   1   1   1
  3.6077652158195084E-02   2   1   2   1
  7.3307886507150188E-01   2   2   1   1
 -8.4745483977436160E-03   2   2   2   1
  5.9013699396049313E-01   2   2   2   2
  4.1665846306495453E-02   3   1   1   1
 -4.5233810817086320E-03   3   1   2   1
  9.1910301509392153E-03   3   1   2   2
  1.3656588863632989E-02   3   1   3   1
  2.4720980705820565E-02   3   2   1   1
  3.0232190215406921E-03   3   2   2   1
  6.2220970586771396E-02   3   2   2   2
  1.5736949453531844E-02   3   2   3   1
  9.2066845169161818E-02   3   2   3   2
  6.6893515200304821E-01   3   3   1   1
 -5.2548011893908571E-03   3   3   2   1
  5.4445628388987344E-01   3   3   2   2
  5.0204722061656835E-04   3   3   3   1
  2.3705993847272698E-02   3   3   3   2
  5.4284722254758844E-01   3   3   3   3
 -1.5530588557925226E-01   4   1   1   1
  2.2427403504202362E-02   4   1   2   1
 -1.2603427463371470E-02   4   1   2   2
 -1.6795801212761932E-02   4   1   3   1
 -1.3667983038641902E-02   4   1   3   2
 -2.7378063496387955E-03   4   1   3   3
  2.9012321670200410E-02   4   1   4   1
  1.4072306638544971E-01   4   2   1   1
 -6.5584347742328498E-03   4   2   2   1
  4.9876536500189340E-02   4   2   2   2
 -5.3741393668801426E-03   4   2   3   1
 -1.8614144816265509E-02   4   2   3   2
  4.8849634278576935E-02   4   2   3   3
  2.2957287658005418E-03   4   2   4   1
  2.9272451684224387E-02   4   2   4   2
 -2.1503549424055454E-01   4   3   1   1
  6.5996276057220431E-03   4   3   2   1
 -9.9242744737575189E-02   4   3   2   2
  3.8772090638070126E-03   4   3   3   1
 -3.3660097708066868E-03   4   3   3   2
 -9.3569159367161064E-02   4   3   3   3
 -9.2535705306871340E-04   4   3   4   1
 -3.6852811604745531E-02   4   3   4   2
  6.4100794979104675E-02   4   3   4   3
  6.1156790995492893E-01   4   4   1   1
 -1.0604800217621899E-02   4   4   2   1
  4.3993349193443287E-01   4   4   2   2
 -8.5060060612516964E-03   4   4   3   1
 -3.4618084738886383E-02   4   4   3   2
  4.5560864369824355E-01   4   4   3   3
  3.4089680772849558E-03   4   4   4   1
  4.8949009865046834E-02   4   4   4   2
 -6.6768504125902253E-02   4   4   4   3
  4.4122049586908374E-01   4   4   4   4
 -1.5261194453322094E-01   5   1   1   1
  2.6216512072253572E-02   5   1   2   1
  1.3679685192031898E-03   5   1   2   2
  9.6497171936396932E-03   5   1   3   1
  1.6063991715130260E-02   5   1   3   2
 -3.4028243722325898E-03   5   1   3   3
  2.4517462684967590E-03   5   1   4   1
 -9.9605266802936417E-03   5   1   4   2
  8.5786861453903632E-03   5   1   4   3
 -1.5734713010199308E-02   5   1   4   4
  3.1995855798330065E-02   5   1   5   1
  1.7905446030204841E-01   5   2   1   1
 -6.1387710912732072E-03   5   2   2   1
  7.1590819267390499E-02   5   2   2   2
  9.3312341016318391E-03   5   2   3   1
  1.8226121150511091E-02   5   2   3   2
  5.9077368104737932E-02   5   2   3   3
 -1.2026695863005801E-02   5   2   4   1
  1.3871295613036492E-02   5   2   4   2
 -2.5123635941625238E-02   5   2   4   3
  3.9840024394911251E-02   5   2   4   4
  3.7577060502110805E-03   5   2   5   1
  5.1598437728384225E-02   5   2   5   2
  1.4619107937446726E-01   5   3   1   1
 -3.4504234787584884E-03   5   3   2   1
  5.9504383216665908E-02   5   3   2   2
  6.6860203208863296E-03   5   3   3   1
  1.3863923063627218E-02   5   3   3   2
  5.2096086943818849E-02   5   3   3   3
 -8.1933584190260322E-03   5   3   4   1
  1.1486658381984038E-02   5   3   4   2
 -2.5903206290731621E-02   5   3   4   3
  3.5597414267324823E-02   5   3   4   4
  3.5996676617867998E-03   5   3   5   1
  4.1649793823734377E-02   5   3   5   2
  3.8185550336972525E-02   5   3   5   3
 -3.1561425360838474E-02   5   4   1   1
  8.4032943403631992E-04   5   4   2   1
 -3.4993048936141618E-03   5   4   2   2
 -4.9306598355605658E-04   5   4   3   1
  9.3595803313574922E-04   5   4   3   2
 -1.1873686686113570E-02   5   4   3   3
  9.5156219559802311E-04   5   4   4   1
 -1.8322847437161624E-03   5   4   4   2
  5.1107701630819973E-03   5   4   4   3
 -1.1665812695632201E-02   5   4   4   4
  5.5009247187368191E-05   5   4   5   1
 -9.0018633022095791E-03   5   4   5   2
 -8.8040834540371333E-03   5   4   5   3
  6.5628934074475308E-03   5   4   5   4
  7.0927450935737779E-01   5   5   1   1
 -8.2172999002620168E-03   5   5   2   1
  5.5938250249345312E-01   5   5   2   2
  1.8992678095474304E-02   5   5   3   1
  9.6625903747137948E-02   5   5   3   2
  5.0479420022038179E-01   5   5   3   3
 -2.2263420121619460E-02   5   5   4   1
  3.1121852672338791E-02   5   5   4   2
 -8.6554102845375888E-02   5   5   4   3
  3.9330039919675591E-01   5   5   4   4
  1.0535577524301646E-02   5   5   5   1
  6.6825862875772191E-02   5   5   5   2
  5.8030116994203025E-02   5   5   5   3
 -5.5404464107444429E-03   5   5   5   4
  5.8247986541098828E-01   5   5   5   5
 -2.1090699581479761E-02   6   1   1   1
  3.8469291330460891E-03   6   1   2   1
  6.4705442755715091E-04   6   1   2   2
  3.3143449920133784E-03   6   1   3   1
  3.9184498018762694E-03   6   1   3   2
 -3.4934959274272653E-03   6   1   3   3
 -1.6689466510547706E-03   6   1   4   1
 -2.0462085479277473E-03   6   1   4   2
  3.4734260840094456E-03   6   1   4   3
 -5.1151513364444557E-03   6   1   4   4
  6.5295875714302927E-03   6   1   5   1
  1.0890644700651188E-03   6   1   5   2
 -1.9274045269542428E-04   6   1   5   3
  1.2578069715076180E-03   6   1   5   4
  2.0457195721560540E-03   6   1   5   5
  2.1198358128288386E-03   6   1   6   1
  5.2368163261885337E-03   6   2   1   1
 -1.0982091124451738E-03   6   2   2   1
 -1.7179586396761013E-02   6   2   2   2
  3.7740031936221342E-05   6   2   3   1
 -1.8787723117577513E-02   6   2   3   2
 -4.0738882540619088E-02   6   2   3   3
 -5.8928700886167829E-04   6   2   4   1
  5.4489141317710064E-03   6   2   4   2
  8.8113594234327831E-03   6   2   4   3
 -9.5215963243987546E-03   6   2   4   4
 -8.7922047996082651E-04   6   2   5   1
 -3.0701813189368057E-03   6   2   5   2
 -4.0928668602703069E-03   6   2   5   3
  7.5129987543605939E-03   6   2   5   4
 -1.9158868535760532E-02   6   2   5   5
  2.6829498572856093E-03   6   2   6   1
  4.7138195954699959E-02   6   2   6   2
  8.1715071305709722E-03   6   3   1   1
 -2.9101937411025649E-03   6   3   2   1
 -4.2103810818245005E-02   6   3   2   2
 -1.2004678192609756E-02   6   3   3   1
 -7.7584807720095059E-02   6   3   3   2
 -4.5033781015057714E-03   6   3   3   3
  1.0083245352512774E-02   6   3   4   1
  1.8327121350326533E-02   6   3   4   2
 -2.8877734413012132E-03   6   3   4   3
  3.8433093325624161E-02   6   3   4   4
 -1.2508399265202518E-02   6   3   5   1
 -8.9524225609045761E-03   6   3   5   2
 -6.6521922864942358E-03   6   3   5   3
 -4.5281718714944253E-03   6   3   5   4
 -6.3169308860389753E-02   6   3   5   5
 -4.1023207601071348E-03   6   3   6   1
  1.0887434733860727E-02   6   3   6   2
  8.5587604371348200E-02   6   3   6   3
 -1.0126720824428099E-02   6   4   1   1
  1.6658162897908440E-03   6   4   2   1
  1.1958551418084159E-02   6   4   2   2
  6.1095798836702771E-03   6   4   3   1
  2.2012984789870578E-02   6   4   3   2
 -1.9754690867775206E-03   6   4   3   3
 -5.1933871961593681E-03   6   4   4   1
 -8.6474964456255514E-03   6   4   4   2
  1.1521410035598806E-02   6   4   4   3
 -1.2973744084601474E-02   6   4   4   4
  6.6877391904613705E-03   6   4   5   1
  6.6512404589936852E-03   6   4   5   2
  1.2150797307282778E-03   6   4   5   3
  1.9713829322074838E-03   6   4   5   4
  1.6332743266891329E-02   6   4   5   5
  3.0992895667956420E-03   6   4   6   1
  1.9141037769171087E-03   6   4   6   2
 -2.4177474402376723E-02   6   4   6   3
  1.5199519823273885E-02   6   4   6   4
  4.2904806508156645E-02   6   5   1   1
 -2.4535534127668331E-03   6   5   2   1
  9.7018611965486116E-03   6   5   2   2
 -1.8422023098372934E-03   6   5   3   1
 -4.2984322466776336E-03   6   5   3   2
  7.1612024768694955E-03   6   5   3   3
  7.2764645123488320E-04   6   5   4   1
  8.3469027343378716E-03   6   5   4   2
 -7.8825841947012098E-03   6   5   4   3
  1.0281051981178691E-02   6   5   4   4
 -3.6905340184185615E-03   6   5   5   1
 -1.8201245964662171E-04   6   5   5   2
 -2.4864492664128102E-03   6   5   5   3
  7.3707052530862021E-04   6   5   5   4
  6.3287245927252734E-03   6   5   5   5
 -1.3539287034924083E-04   6   5   6   1
  5.1372671678319021E-03   6   5   6   2
  5.1331606226378591E-03   6   5   6   3
 -1.5498313846992763E-03   6   5   6   4
  8.0639617843118426E-03   6   5   6   5
  6.4480872433126191E-01   6   6   1   1
 -1.2198695102935754E-03   6   6   2   1
  5.7621599603608153E-01   6   6   2   2
  1.5507136792357731E-03   6   6   3   1
  4.1023440692812246E-02   6   6   3   2
  5.6162570992005012E-01   6   6   3   3
 -1.7022237496188836E-03   6   6   4   1
  4.7814021533860336E-02   6   6   4   2
 -9.6738156801162559E-02   6   6   4   3
  4.5178889435576303E-01   6   6   4   4
  4.9272289654291219E-04   6   6   5   1
  5.8867384384711591E-02   6   6   5   2
  5.0030964192151854E-02   6   6   5   3
 -5.9688792572344506E-03   6   6   5   4
  5.2491078830671578E-01   6   6   5   5
 -1.7549320599607706E-03   6   6   6   1
 -4.4519044036557737E-02   6   6   6   2
 -2.2290150091358360E-02   6   6   6   3
  4.8123269536671232E-03   6   6   6   4
  5.6516967484215724E-03   6   6   6   5
  6.1182336098482282E-01   6   6   6   6
 -2.5704264781727964E-20   7   1   1   1
  1.9782254767086070E-21   7   1   2   1
 -8.8682807351878484E-21   7   1   2   2
 -3.9607663959556928E-22   7   1   3   1
  5.3964482602215838E-21   7   1   3   2
 -4.0962668604018945E-21   7   1   3   3
 -1.2358883279913892E-20   7   1   4   1
  5.4814753351093685E-21   7   1   4   2
 -6.2430716962492299E-21   7   1   4   3
 -7.2891998989661118E-21   7   1   4   4
 -1.2382533094720068E-20   7   1   5   1
  2.2815097657253974E-21   7   1   5   2
  6.8897739173877624E-21   7   1   5   3
  1.8144788803344551E-21   7   1   5   4
  2.6342504917552058E-20   7   1   5   5
  2.2173582780845878E-22   7   1   6   1
 -2.9360930356376453E-20   7   1   6   2
 -3.3363185278457060E-20   7   1   6   3
  9.0894993238821857E-20   7   1   6   4
 -2.1935747487839231E-19   7   1   6   5
  1.4815083609091213E-18   7   1   6   6
  6.5431393329175172E-04   7   1   7   1
  4.0707854251258584E-19   7   2   1   1
 -5.6572968530271717E-20   7   2   2   1
  3.1109178900771692E-19   7   2   2   2
 -3.3229776918989658E-20   7   2   3   1
  8.3801912178499723E-20   7   2   3   2
  6.1361808170176529E-20   7   2   3   3
  2.6801289305567856E-19   7   2   4   1
 -2.7244332921739156E-19   7   2   4   2
  4.5261873869044296E-19   7   2   4   3
 -1.3918256331362116E-18   7   2   4   4
 -6.5303855627222512E-20   7   2   5   1
  1.2555933375701632E-18   7   2   5   2
  3.5824088408721447E-19   7   2   5   3
  1.1247814468570394E-18   7   2   5   4
  5.4888442370080726E-18   7   2   5   5
  1.6170093142700116E-18   7   2   6   1
 -6.6546117327761898E-18   7   2   6   2
  1.4116904770566445E-19   7   2   6   3
 -1.4739940993753512E-17   7   2   6   4
 -1.8678549079151845E-17   7   2   6   5
  1.3025565041649272E-17   7   2   6   6
  2.8272949242272418E-03   7   2   7   1
  3.7557759557209094E-02   7   2   7   2
  7.9926903621214011E-19   7   3   1   1
 -5.7987227966114530E-20   7   3   2   1
  2.5251511753680479E-19   7   3   2   2
  1.7447626562727449E-20   7   3   3   1
 -1.8421608488080503E-19   7   3   3   2
  1.5412608277796903E-19   7   3   3   3
  3.7620063542636038E-19   7   3   4   1
 -1.7845679214864045E-19   7   3   4   2
  5.1934468395134837E-20   7   3   4   3
  7.1445418548701066E-19   7   3   4   4
  4.2004194510750568E-19   7   3   5   1
 -2.2054093572708191E-19   7   3   5   2
 -1.4437177956924201E-19   7   3   5   3
 -7.3328338218911333E-19   7   3   5   4
 -9.7765754493300424E-19   7   3   5   5
 -2.1621897638133133E-19   7   3   6   1
  1.5925324797811927E-18   7   3   6   2
 -1.7660396791761210E-20   7   3   6   3
  2.8921846152367654E-18   7   3   6   4
  4.1637128032208029E-18   7   3   6   5
 -4.3858027643931062E-18   7   3   6   6
 -5.0011729880479580E-04   7   3   7   1
 -4.6718717540097914E-03   7   3   7   2
  9.7071300034273778E-03   7   3   7   3
 -1.7103650424398727E-18   7   4   1   1
  7.8700727742021068E-20   7   4   2   1
 -2.8411292088035176E-19   7   4   2   2
 -1.1015159263359536E-19   7   4   3   1
  6.2644014681106480E-19   7   4   3   2
 -4.2407084505219144E-19   7   4   3   3
 -6.6121863235840531E-19   7   4   4   1
  4.3809490115595674E-20   7   4   4   2
  3.9887435030065079E-19   7   4   4   3
 -3.2935156532568175E-18   7   4   4   4
 -1.3730129602947626E-18   7   4   5   1
  2.2368917113599352E-18   7   4   5   2
  3.8615208062458015E-19   7   4   5   3
  3.3310541384513312E-18   7   4   5   4
  6.6287687455212029E-18   7   4   5   5
  3.4595546594924289E-18   7   4   6   1
 -1.3442401620717972E-17   7   4   6   2
  2.5866831013692627E-18   7   4   6   3
 -2.4277923893466794E-17   7   4   6   4
 -1.9754148143648511E-17   7   4   6   5
 -4.3581900638552274E-17   7   4   6   6
  1.1732566736935479E-03   7   4   7   1
  6.3713421614635460E-03   7   4   7   2
 -2.6859704070524453E-03   7   4   7   3
  5.4769065105151468E-03   7   4   7   4
  4.9614413017578765E-18   7   5   1   1
 -4.4042355606089844E-19   7   5   2   1
  2.0838735379300247E-18   7   5   2   2
 -1.8001352024963577E-20   7   5   3   1
 -6.5257432091194336E-19   7   5   3   2
  8.6077562457139819E-19   7   5   3   3
  2.5699360784121756E-18   7   5   4   1
 -1.6499905061372540E-18   7   5   4   2
  1.5233361886938525E-18   7   5   4   3
 -2.9429800184861085E-19   7   5   4   4
  1.7742442999805662E-18   7   5   5   1
  2.4068786421955204E-18   7   5   5   2
 -1.1183378455347086E-20   7   5   5   3
 -2.4941607433321167E-19   7   5   5   4
  8.5164688819254127E-18   7   5   5   5
  3.8407131187650397E-18   7   5   6   1
 -1.0856879746540136E-17   7   5   6   2
  2.0520063304664632E-18   7   5   6   3
 -2.7320736933898077E-17   7   5   6   4
 -2.0488304437056515E-17   7   5   6   5
 -4.6964642634383730E-17   7   5   6   6
  8.0472199451134447E-04   7   5   7   1
  1.6797139451192790E-04   7   5   7   2
  4.0225113294193741E-04   7   5   7   3
  2.7309015751174563E-03   7   5   7   4
  5.8315589064296637E-03   7   5   7   5
 -3.2504445505986021E-17   7   6   1   1
  2.5192383581109291E-18   7   6   2   1
 -1.1444045966248525E-17   7   6   2   2
 -4.6310987855406072E-19   7   6   3   1
  6.3279306631208142E-18   7   6   3   2
 -6.2412027072560127E-18   7   6   3   3
 -1.5722198619421461E-17   7   6   4   1
  8.2062162596271218E-18   7   6   4   2
 -5.2000428432894415E-18   7   6   4   3
 -1.5892853397627980E-17   7   6   4   4
 -1.5432465954165499E-17   7   6   5   1
 -5.3792381987596355E-20   7   6   5   2
  2.3996782545144702E-18   7   6   5   3
  1.8421768264242795E-17   7   6   5   4
 -4.1632515983031573E-18   7   6   5   5
 -1.2744380823503240E-18   7   6   6   1
 -1.6636742899005971E-17   7   6   6   2
  1.6169564017511857E-18   7   6   6   3
  4.0044339485814018E-18   7   6   6   4
 -1.6708285870532068E-17   7   6   6   5
  6.6026974289611317E-17   7   6   6   6
  1.8929638713826474E-03   7   6   7   1
  2.6737457551477762E-02   7   6   7   2
 -4.1665327027178220E-03   7   6   7   3
  4.5112620217086230E-03   7   6   7   4
 -5.7143395801816552E-05   7   6   7   5
  2.5133055727350927E-02   7   6   7   6
  6.2188644750571620E-01   7   7   1   1
 -6.3650644582350345E-04   7   7   2   1
  5.5190035202898757E-01   7   7   2   2
  2.7098833023499963E-03   7   7   3   1
  2.6322497336751096E-02   7   7   3   2
  5.0148512640204379E-01   7   7   3   3
 -2.5902568004016612E-03   7   7   4   1
  4.9835568831581627E-02   7   7   4   2
 -8.1623598008265130E-02   7   7   4   3
  4.2850687267318560E-01   7   7   4   4
  1.9006621113516458E-03   7   7   5   1
  5.0001195136284461E-02   7   7   5   2
  4.2109486025369257E-02   7   7   5   3
  4.8939647648899879E-03   7   7   5   4
  5.0462824752784119E-01   7   7   5   5
  2.0656121561930148E-03   7   7   6   1
  1.8419830299124834E-02   7   7   6   2
 -2.0808368778873355E-02   7   7   6   3
  9.1770199434283439E-03   7   7   6   4
  1.0496126438632507E-02   7   7   6   5
  5.3657920714393059E-01   7   7   6   6
 -8.3881330883858913E-19   7   7   7   1
 -4.1778510380333216E-20   7   7   7   2
  4.1964599405815532E-18   7   7   7   3
  8.7094730137407296E-18   7   7   7   4
 -1.1352237170759017E-17   7   7   7   5
  2.5922278138215775E-17   7   7   7   6
  5.7155097725186121E-01   7   7   7   7
  6.2188644750571587E-01   8   8   1   1
 -6.3650644582346236E-04   8   8   2   1
  5.5190035202898724E-01   8   8   2   2
  2.7098833023499933E-03   8   8   3   1
  2.6322497336751068E-02   8   8   3   2
  5.0148512640204346E-01   8   8   3   3
 -2.5902568004014539E-03   8   8   4   1
  4.9835568831582099E-02   8   8   4   2
 -8.1623598008264839E-02   8   8   4   3
  4.2850687267318699E-01   8   8   4   4
  1.9006621113518418E-03   8   8   5   1
  5.0001195136284871E-02   8   8   5   2
  4.2109486025368965E-02   8   8   5   3
  4.8939647648913566E-03   8   8   5   4
  5.0462824752784186E-01   8   8   5   5
  2.0656121561930130E-03   8   8   6   1
  1.8419830299124841E-02   8   8   6   2
 -2.0808368778873314E-02   8   8   6   3
  9.1770199434284064E-03   8   8   6   4
  1.0496126438632694E-02   8   8   6   5
  5.3657920714392926E-01   8   8   6   6
  3.2076880080014654E-21   8   8   7   1
 -5.0483154263345104E-20   8   8   7   2
 -9.9786994883597254E-20   8   8   7   3
  2.1413100314115179E-19   8   8   7   4
 -6.1840057139114113E-19   8   8   7   5
  4.0561306987158732E-18   8   8   7   6
  5.4611333634122017E-01   8   8   7   7
  5.7155097725186010E-01   8   8   8   8
  7.2461165815819861E-01   9   9   1   1
 -7.1567672462957196E-03   9   9   2   1
  5.5450345018615343E-01   9   9   2   2
  2.9757699952313765E-03   9   9   3   1
  2.0021137796440661E-02   9   9   3   2
  5.1272016196352699E-01   9   9   3   3
 -5.9504907345748715E-03   9   9   4   1
  5.9284422484199219E-02   9   9   4   2
 -9.4573133322208680E-02   9   9   4   3
  4.4687371567354522E-01   9   9   4   4
 -2.8970730653350234E-03   9   9   5   1
  6.5198838889396121E-02   9   9   5   2
  5.4488239662019537E-02   9   9   5   3
 -8.9896591954824207E-04   9   9   5   4
  5.1212218628393336E-01   9   9   5   5
  1.1818060071188072E-03   9   9   6   1
  1.1384969460282390E-02   9   9   6   2
 -1.0696304739446723E-02   9   9   6   3
  5.2548306823614541E-03   9   9   6   4
  1.4232490723766200E-02   9   9   6   5
  5.3513642787110782E-01   9   9   6   6
  2.9017283236179490E-03   9   9   7   1
  2.7465940533768891E-02   9   9   7   2
 -5.2613075281447968E-03   9   9   7   3
  5.7332558793807666E-03   9   9   7   4
  1.2394901600174984E-03   9   9   7   5
  1.9709919189786870E-02   9   9   7   6
  5.4400456812971698E-01   9   9   7   7
  5.4400456812971698E-01   9   9   8   8
  5.7308677543181830E-01   9   9   9   9
  2.6428771790220779E-01  10   9   1   1
 -7.5171582740623816E-03  10   9   2   1
  1.1585466123926626E-01  10   9   2   2
  3.0472921908923567E-03  10   9   3   1
  1.3770848508313394E-02  10   9   3   2
  9.6381349020694923E-02  10   9   3   3
 -6.2990102849841897E-03  10   9   4   1
  3.4629083209998836E-02  10   9   4   2
 -5.1942072512319686E-02  10   9   4   3
  7.1426461329785682E-02  10   9   4   4
 -3.1431248222393879E-03  10   9   5   1
  4.5578274039491606E-02  10   9   5   2
  3.4629247758474258E-02  10   9   5   3
 -6.1829654475407825E-03  10   9   5   4
  1.0223472919760324E-01  10   9   5   5
  6.6431252063698558E-04  10   9   6   1
  2.6689405183782967E-03  10   9   6   2
 -4.9957084392542317E-03  10   9   6   3
  3.3268862802333845E-03  10   9   6   4
  1.1114882869763486E-02  10   9   6   5
  9.9712269458763825E-02  10   9   6   6
  1.8287579042440111E-03  10   9   7   1
  5.7384413423472620E-03  10   9   7   2
  7.3027703144151564E-05  10   9   7   3
  5.3946568721734058E-03  10   9   7   4
  5.0045799994991626E-03  10   9   7   5
  3.5274351737209935E-03  10   9   7   6
  9.6822555384680140E-02  10   9   7   7
  9.6822555384680417E-02  10   9   8   8
  1.2066491006645533E-01  10   9   9   9
  7.9504026777281328E-02  10   9  10   9
  5.9541515341307394E-01  10  10   1   1
 -7.9918712026655816E-03  10  10   2   1
  4.4859144539084317E-01  10  10   2   2
  3.2541820378718892E-03  10  10   3   1
  1.3798096651502242E-02  10  10   3   2
  4.2334337466333805E-01  10  10   3   3
 -6.8404730398546219E-03  10  10   4   1
  3.5108224474205384E-02  10  10   4   2
 -5.8651847157440089E-02  10  10   4   3
  3.8648591554237732E-01  10  10   4   4
 -3.4000611906931004E-03  10  10   5   1
  4.2592478617109651E-02  10  10   5   2
  3.7224814753970742E-02  10  10   5   3
 -5.2197931951336509E-04  10  10   5   4
  4.3007898845562881E-01  10  10   5   5
  6.7815852516119426E-04  10  10   6   1
  6.2575286790063009E-03  10  10   6   2
 -6.6926207548478750E-03  10  10   6   3
  2.2103974760910583E-03  10  10   6   4
  8.8480368806547124E-03  10  10   6   5
  4.3266739272622451E-01  10  10   6   6
  1.9561551137911286E-03  10  10   7   1
  1.5474298239673646E-02  10  10   7   2
 -3.0206913933961974E-03  10  10   7   3
  1.3995120900517799E-03  10  10   7   4
 -3.8713299803843569E-04  10  10   7   5
  1.0720094741224456E-02  10  10   7   6
  4.3605036758869448E-01  10  10   7   7
  4.3605036758869453E-01  10  10   8   8
  4.6258717380300385E-01  10  10   9   9
  7.2128828623867047E-02  10  10  10   9
  4.0744785931021804E-01  10  10  10  10
  5.5910457132160793E-03  11   9   1   1
 -2.2198168665486691E-03  11   9   2   1
 -2.8013974006411976E-02  11   9   2   2
 -1.1496429058431394E-02  11   9   3   1
 -6.3450073150619291E-02  11   9   3   2
  4.1902031621401407E-03  11   9   3   3
  1.0004717622091085E-02  11   9   4   1
  1.5991059233692893E-02  11   9   4   2
 -5.5386050177198077E-03  11   9   4   3
  3.5891217661816216E-02  11   9   4   4
 -1.1727132913895969E-02  11   9   5   1
 -9.1096529188761290E-03  11   9   5   2
 -5.7168583001493620E-03  11   9   5   3
 -2.5349144022931919E-03  11   9   5   4
 -5.5250462773885380E-02  11   9   5   5
 -3.2865160135086904E-03  11   9   6   1
  2.9790223260855331E-03  11   9   6   2
  4.6433123285345719E-02  11   9   6   3
 -1.4134756254290635E-02  11   9   6   4
  2.1786629570286599E-03  11   9   6   5
 -8.5506757117132948E-03  11   9   6   6
  1.3788741076663490E-04  11   9   7   1
 -1.4910325833590089E-03  11   9   7   2
 -8.4842610482544194E-03  11   9   7   3
  2.1538623649367977E-03  11   9   7   4
 -4.8211680844324170E-04  11   9   7   5
 -1.3072989675658568E-03  11   9   7   6
 -9.7173907692680826E-03  11   9   7   7
 -9.7173907692680514E-03  11   9   8   8
 -1.7099562579956334E-03  11   9   9   9
 -4.5917518166320543E-03  11   9  10   9
 -2.6948809403096142E-03  11   9  10  10
  6.1667331913190078E-02  11   9  11   9
 -9.8057752345810621E-03  11  10   1   1
 -1.4525585434956509E-03  11  10   2   1
 -2.2220840614169235E-02  11  10   2   2
 -5.7729163511083441E-03  11  10   3   1
 -1.9194711107048575E-02  11  10   3   2
 -1.4429733932417296E-02  11  10   3   3
  5.0121272688602890E-03  11  10   4   1
  5.8774356729715113E-03  11  10   4   2
 -3.4796548369528044E-03  11  10   4   3
  5.8029722751065378E-04  11  10   4   4
 -6.3899691470826782E-03  11  10   5   1
 -1.1926875524642049E-02  11  10   5   2
 -8.6101128294878843E-03  11  10   5   3
  1.0786259632239938E-03  11  10   5   4
 -2.5531472607040886E-02  11  10   5   5
 -1.5503714984187872E-03  11  10   6   1
  3.8023166854898385E-03  11  10   6   2
  1.2978853664953018E-02  11  10   6   3
 -6.4635315065818448E-03  11  10   6   4
  1.5087552602686388E-03  11  10   6   5
 -1.8218239503694111E-02  11  10   6   6
  2.6378010320662829E-05  11  10   7   1
 -1.1229311068242261E-03  11  10   7   2
 -1.7405724261753078E-03  11  10   7   3
  1.0252096108276892E-03  11  10   7   4
 -1.5003422681324880E-03  11  10   7   5
 -3.1443543444236122E-04  11  10   7   6
 -1.4558699323324669E-02  11  10   7   7
 -1.4558699323324613E-02  11  10   8   8
 -1.2758275397101662E-02  11  10   9   9
 -5.8290619236837076E-03  11  10  10   9
 -7.2277253651889693E-03  11  10  10  10
  1.6333094565691080E-02  11  10  11   9
  1.1193597681709862E-02  11  10  11  10
  6.3607351562965353E-01  11  11   1   1
 -7.9056912293608696E-04  11  11   2   1
  5.6601571492410052E-01  11  11   2   2
  2.3135705455546701E-03  11  11   3   1
  3.4249782413934435E-02  11  11   3   2
  5.4089650991008043E-01  11  11   3   3
 -2.2773086573132776E-03  11  11   4   1
  4.8873916257682011E-02  11  11   4   2
 -9.1338847075691995E-02  11  11   4   3
  4.4408355465630728E-01  11  11   4   4
  1.5719790719179293E-03  11  11   5   1
  5.6745457033809038E-02  11  11   5   2
  4.8253363106971897E-02  11  11   5   3
 -3.4218199937973591E-03  11  11   5   4
  5.2066406580950164E-01  11  11   5   5
 -6.4105574843498279E-04  11  11   6   1
 -2.2155361874021118E-02  11  11   6   2
 -1.5471219654333582E-02  11  11   6   3
  3.9129130808229010E-03  11  11   6   4
  7.8688851276467464E-03  11  11   6   5
  5.6378732694552214E-01  11  11   6   6
  1.6256251651276458E-03  11  11   7   1
  2.4323261536611698E-02  11  11   7   2
 -3.2271919450577403E-03  11  11   7   3
  3.6316121475303497E-03  11  11   7   4
 -2.4056334797078021E-04  11  11   7   5
  1.1282590769619696E-02  11  11   7   6
  5.3807654545873940E-01  11  11   7   7
  5.3807654545873873E-01  11  11   8   8
  5.5303683722004837E-01  11  11   9   9
  1.0196831945806485E-01  11  11  10   9
  4.4201150780797321E-01  11  11  10  10
 -7.8290204246059970E-03  11  11  11   9
 -1.9717011059713907E-02  11  11  11  10
  5.9031848567448097E-01  11  11  11  11
  7.2461165815819872E-01  12  12   1   1
 -7.1567672462957040E-03  12  12   2   1
  5.5450345018615366E-01  12  12   2   2
  2.9757699952313748E-03  12  12   3   1
  2.0021137796440634E-02  12  12   3   2
  5.1272016196352699E-01  12  12   3   3
 -5.9504907345748681E-03  12  12   4   1
  5.9284422484199205E-02  12  12   4   2
 -9.4573133322208736E-02  12  12   4   3
  4.4687371567354539E-01  12  12   4   4
 -2.8970730653350269E-03  12  12   5   1
  6.5198838889396232E-02  12  12   5   2
  5.4488239662019489E-02  12  12   5   3
 -8.9896591954817095E-04  12  12   5   4
  5.1212218628393347E-01  12  12   5   5
  1.1818060071188074E-03  12  12   6   1
  1.1384969460282390E-02  12  12   6   2
 -1.0696304739446744E-02  12  12   6   3
  5.2548306823614888E-03  12  12   6   4
  1.4232490723766186E-02  12  12   6   5
  5.3513642787110793E-01  12  12   6   6
 -2.9017283236179503E-03  12  12   7   1
 -2.7465940533768891E-02  12  12   7   2
  5.2613075281447950E-03  12  12   7   3
 -5.7332558793807623E-03  12  12   7   4
 -1.2394901600174880E-03  12  12   7   5
 -1.9709919189786883E-02  12  12   7   6
  5.4400456812971709E-01  12  12   7   7
  5.4400456812971698E-01  12  12   8   8
  5.2855898974632676E-01  12  12   9   9
  1.0901763412586733E-01  12  12  10   9
  4.3378310119102681E-01  12  12  10  10
 -3.0083931407560612E-03  12  12  11   9
 -1.2337814188640689E-02  12  12  11  10
  5.1883551608947875E-01  12  12  11  11
  5.7308677543181841E-01  12  12  12  12
  2.6428771790220790E-01  13  12   1   1
 -7.5171582740623574E-03  13  12   2   1
  1.1585466123926638E-01  13  12   2   2
  3.0472921908923528E-03  13  12   3   1
  1.3770848508313402E-02  13  12   3   2
  9.6381349020695062E-02  13  12   3   3
 -6.2990102849842192E-03  13  12   4   1
  3.4629083209998884E-02  13  12   4   2
 -5.1942072512319630E-02  13  12   4   3
  7.1426461329785890E-02  13  12   4   4
 -3.1431248222394113E-03  13  12   5   1
  4.5578274039491655E-02  13  12   5   2
  3.4629247758474202E-02  13  12   5   3
 -6.1829654475405883E-03  13  12   5   4
  1.0223472919760333E-01  13  12   5   5
  6.6431252063698732E-04  13  12   6   1
  2.6689405183783002E-03  13  12   6   2
 -4.9957084392542525E-03  13  12   6   3
  3.3268862802334313E-03  13  12   6   4
  1.1114882869763434E-02  13  12   6   5
  9.9712269458763964E-02  13  12   6   6
 -1.8287579042440122E-03  13  12   7   1
 -5.7384413423472690E-03  13  12   7   2
 -7.3027703144150466E-05  13  12   7   3
 -5.3946568721734223E-03  13  12   7   4
 -5.0045799994991834E-03  13  12   7   5
 -3.5274351737210187E-03  13  12   7   6
  9.6822555384680362E-02  13  12   7   7
  9.6822555384680528E-02  13  12   8   8
  1.0901763412586743E-01  13  12   9   9
  6.2380013667213609E-02  13  12  10   9
  7.0903077003728873E-02  13  12  10  10
 -4.1123211778368168E-03  13  12  11   9
 -4.9119289323099648E-03  13  12  11  10
  9.5678187267497980E-02  13  12  11  11
  1.2066491006645545E-01  13  12  12  12
  7.9504026777281411E-02  13  12  13  12
  5.9541515341307394E-01  13  13   1   1
 -7.9918712026655937E-03  13  13   2   1
  4.4859144539084322E-01  13  13   2   2
  3.2541820378718983E-03  13  13   3   1
  1.3798096651502242E-02  13  13   3   2
  4.2334337466333805E-01  13  13   3   3
 -6.8404730398545976E-03  13  13   4   1
  3.5108224474205439E-02  13  13   4   2
 -5.8651847157440144E-02  13  13   4   3
  3.8648591554237743E-01  13  13   4   4
 -3.4000611906930688E-03  13  13   5   1
  4.2592478617109707E-02  13  13   5   2
  3.7224814753970714E-02  13  13   5   3
 -5.2197931951306238E-04  13  13   5   4
  4.3007898845562870E-01  13  13   5   5
  6.7815852516119241E-04  13  13   6   1
  6.2575286790063009E-03  13  13   6   2
 -6.6926207548478889E-03  13  13   6   3
  2.2103974760911207E-03  13  13   6   4
  8.8480368806546916E-03  13  13   6   5
  4.3266739272622468E-01  13  13   6   6
 -1.9561551137911295E-03  13  13   7   1
 -1.5474298239673636E-02  13  13   7   2
  3.0206913933961978E-03  13  13   7   3
 -1.3995120900517548E-03  13  13   7   4